V -t * -v 1.0a5 -a 0
A -t * -n 1 -p 0 -o 0x7fffffff -c 30 -a 1
A -t * -h 1 -m 1073741823 -s 0
c -t * -i 1 -n Red
c -t * -i 2 -n Blue
n -t * -a 0 -s 0 -S UP -v circle -c black -i black
n -t * -a 1 -s 1 -S UP -v circle -c black -i black
n -t * -a 2 -s 2 -S UP -v circle -c black -i black
n -t * -a 3 -s 3 -S UP -v circle -c black -i black
l -t * -s 0 -d 2 -S UP -r 2000000 -D 0.01 -c black -o right-down
l -t * -s 1 -d 2 -S UP -r 2000000 -D 0.01 -c black -o right-up
l -t * -s 2 -d 3 -S UP -r 1400000 -D 0.01 -c black -o right
q -t * -s 3 -d 2 -a 0.5
q -t * -s 2 -d 3 -a 0.5
+ -t 0.1 -s 1 -d 2 -p cbr -e 210 -c 2 -i 0 -a 2 -x {1.0 3.1 0 ------- null}
- -t 0.1 -s 1 -d 2 -p cbr -e 210 -c 2 -i 0 -a 2 -x {1.0 3.1 0 ------- null}
h -t 0.1 -s 1 -d 2 -p cbr -e 210 -c 2 -i 0 -a 2 -x {1.0 3.1 -1 ------- null}
+ -t 0.10375 -s 1 -d 2 -p cbr -e 210 -c 2 -i 1 -a 2 -x {1.0 3.1 1 ------- null}
- -t 0.10375 -s 1 -d 2 -p cbr -e 210 -c 2 -i 1 -a 2 -x {1.0 3.1 1 ------- null}
h -t 0.10375 -s 1 -d 2 -p cbr -e 210 -c 2 -i 1 -a 2 -x {1.0 3.1 -1 ------- null}
+ -t 0.1075 -s 1 -d 2 -p cbr -e 210 -c 2 -i 2 -a 2 -x {1.0 3.1 2 ------- null}
- -t 0.1075 -s 1 -d 2 -p cbr -e 210 -c 2 -i 2 -a 2 -x {1.0 3.1 2 ------- null}
h -t 0.1075 -s 1 -d 2 -p cbr -e 210 -c 2 -i 2 -a 2 -x {1.0 3.1 -1 ------- null}
r -t 0.11084 -s 1 -d 2 -p cbr -e 210 -c 2 -i 0 -a 2 -x {1.0 3.1 0 ------- null}
+ -t 0.11084 -s 2 -d 3 -p cbr -e 210 -c 2 -i 0 -a 2 -x {1.0 3.1 0 ------- null}
- -t 0.11084 -s 2 -d 3 -p cbr -e 210 -c 2 -i 0 -a 2 -x {1.0 3.1 0 ------- null}
h -t 0.11084 -s 2 -d 3 -p cbr -e 210 -c 2 -i 0 -a 2 -x {1.0 3.1 -1 ------- null}
+ -t 0.11125 -s 1 -d 2 -p cbr -e 210 -c 2 -i 3 -a 2 -x {1.0 3.1 3 ------- null}
- -t 0.11125 -s 1 -d 2 -p cbr -e 210 -c 2 -i 3 -a 2 -x {1.0 3.1 3 ------- null}
h -t 0.11125 -s 1 -d 2 -p cbr -e 210 -c 2 -i 3 -a 2 -x {1.0 3.1 -1 ------- null}
r -t 0.11459 -s 1 -d 2 -p cbr -e 210 -c 2 -i 1 -a 2 -x {1.0 3.1 1 ------- null}
+ -t 0.11459 -s 2 -d 3 -p cbr -e 210 -c 2 -i 1 -a 2 -x {1.0 3.1 1 ------- null}
- -t 0.11459 -s 2 -d 3 -p cbr -e 210 -c 2 -i 1 -a 2 -x {1.0 3.1 1 ------- null}
h -t 0.11459 -s 2 -d 3 -p cbr -e 210 -c 2 -i 1 -a 2 -x {1.0 3.1 -1 ------- null}
+ -t 0.115 -s 1 -d 2 -p cbr -e 210 -c 2 -i 4 -a 2 -x {1.0 3.1 4 ------- null}
- -t 0.115 -s 1 -d 2 -p cbr -e 210 -c 2 -i 4 -a 2 -x {1.0 3.1 4 ------- null}
h -t 0.115 -s 1 -d 2 -p cbr -e 210 -c 2 -i 4 -a 2 -x {1.0 3.1 -1 ------- null}
r -t 0.11834 -s 1 -d 2 -p cbr -e 210 -c 2 -i 2 -a 2 -x {1.0 3.1 2 ------- null}
+ -t 0.11834 -s 2 -d 3 -p cbr -e 210 -c 2 -i 2 -a 2 -x {1.0 3.1 2 ------- null}
- -t 0.11834 -s 2 -d 3 -p cbr -e 210 -c 2 -i 2 -a 2 -x {1.0 3.1 2 ------- null}
h -t 0.11834 -s 2 -d 3 -p cbr -e 210 -c 2 -i 2 -a 2 -x {1.0 3.1 -1 ------- null}
+ -t 0.11875 -s 1 -d 2 -p cbr -e 210 -c 2 -i 5 -a 2 -x {1.0 3.1 5 ------- null}
- -t 0.11875 -s 1 -d 2 -p cbr -e 210 -c 2 -i 5 -a 2 -x {1.0 3.1 5 ------- null}
h -t 0.11875 -s 1 -d 2 -p cbr -e 210 -c 2 -i 5 -a 2 -x {1.0 3.1 -1 ------- null}
r -t 0.12204 -s 2 -d 3 -p cbr -e 210 -c 2 -i 0 -a 2 -x {1.0 3.1 0 ------- null}
r -t 0.12209 -s 1 -d 2 -p cbr -e 210 -c 2 -i 3 -a 2 -x {1.0 3.1 3 ------- null}
+ -t 0.12209 -s 2 -d 3 -p cbr -e 210 -c 2 -i 3 -a 2 -x {1.0 3.1 3 ------- null}
- -t 0.12209 -s 2 -d 3 -p cbr -e 210 -c 2 -i 3 -a 2 -x {1.0 3.1 3 ------- null}
h -t 0.12209 -s 2 -d 3 -p cbr -e 210 -c 2 -i 3 -a 2 -x {1.0 3.1 -1 ------- null}
+ -t 0.1225 -s 1 -d 2 -p cbr -e 210 -c 2 -i 6 -a 2 -x {1.0 3.1 6 ------- null}
- -t 0.1225 -s 1 -d 2 -p cbr -e 210 -c 2 -i 6 -a 2 -x {1.0 3.1 6 ------- null}
h -t 0.1225 -s 1 -d 2 -p cbr -e 210 -c 2 -i 6 -a 2 -x {1.0 3.1 -1 ------- null}
r -t 0.12579 -s 2 -d 3 -p cbr -e 210 -c 2 -i 1 -a 2 -x {1.0 3.1 1 ------- null}
r -t 0.12584 -s 1 -d 2 -p cbr -e 210 -c 2 -i 4 -a 2 -x {1.0 3.1 4 ------- null}
+ -t 0.12584 -s 2 -d 3 -p cbr -e 210 -c 2 -i 4 -a 2 -x {1.0 3.1 4 ------- null}
- -t 0.12584 -s 2 -d 3 -p cbr -e 210 -c 2 -i 4 -a 2 -x {1.0 3.1 4 ------- null}
h -t 0.12584 -s 2 -d 3 -p cbr -e 210 -c 2 -i 4 -a 2 -x {1.0 3.1 -1 ------- null}
+ -t 0.12625 -s 1 -d 2 -p cbr -e 210 -c 2 -i 7 -a 2 -x {1.0 3.1 7 ------- null}
- -t 0.12625 -s 1 -d 2 -p cbr -e 210 -c 2 -i 7 -a 2 -x {1.0 3.1 7 ------- null}
h -t 0.12625 -s 1 -d 2 -p cbr -e 210 -c 2 -i 7 -a 2 -x {1.0 3.1 -1 ------- null}
r -t 0.12954 -s 2 -d 3 -p cbr -e 210 -c 2 -i 2 -a 2 -x {1.0 3.1 2 ------- null}
r -t 0.12959 -s 1 -d 2 -p cbr -e 210 -c 2 -i 5 -a 2 -x {1.0 3.1 5 ------- null}
+ -t 0.12959 -s 2 -d 3 -p cbr -e 210 -c 2 -i 5 -a 2 -x {1.0 3.1 5 ------- null}
- -t 0.12959 -s 2 -d 3 -p cbr -e 210 -c 2 -i 5 -a 2 -x {1.0 3.1 5 ------- null}
h -t 0.12959 -s 2 -d 3 -p cbr -e 210 -c 2 -i 5 -a 2 -x {1.0 3.1 -1 ------- null}
+ -t 0.13 -s 1 -d 2 -p cbr -e 210 -c 2 -i 8 -a 2 -x {1.0 3.1 8 ------- null}
- -t 0.13 -s 1 -d 2 -p cbr -e 210 -c 2 -i 8 -a 2 -x {1.0 3.1 8 ------- null}
h -t 0.13 -s 1 -d 2 -p cbr -e 210 -c 2 -i 8 -a 2 -x {1.0 3.1 -1 ------- null}
r -t 0.13329 -s 2 -d 3 -p cbr -e 210 -c 2 -i 3 -a 2 -x {1.0 3.1 3 ------- null}
r -t 0.13334 -s 1 -d 2 -p cbr -e 210 -c 2 -i 6 -a 2 -x {1.0 3.1 6 ------- null}
+ -t 0.13334 -s 2 -d 3 -p cbr -e 210 -c 2 -i 6 -a 2 -x {1.0 3.1 6 ------- null}
- -t 0.13334 -s 2 -d 3 -p cbr -e 210 -c 2 -i 6 -a 2 -x {1.0 3.1 6 ------- null}
h -t 0.13334 -s 2 -d 3 -p cbr -e 210 -c 2 -i 6 -a 2 -x {1.0 3.1 -1 ------- null}
+ -t 0.13375 -s 1 -d 2 -p cbr -e 210 -c 2 -i 9 -a 2 -x {1.0 3.1 9 ------- null}
- -t 0.13375 -s 1 -d 2 -p cbr -e 210 -c 2 -i 9 -a 2 -x {1.0 3.1 9 ------- null}
h -t 0.13375 -s 1 -d 2 -p cbr -e 210 -c 2 -i 9 -a 2 -x {1.0 3.1 -1 ------- null}
r -t 0.13704 -s 2 -d 3 -p cbr -e 210 -c 2 -i 4 -a 2 -x {1.0 3.1 4 ------- null}
r -t 0.13709 -s 1 -d 2 -p cbr -e 210 -c 2 -i 7 -a 2 -x {1.0 3.1 7 ------- null}
+ -t 0.13709 -s 2 -d 3 -p cbr -e 210 -c 2 -i 7 -a 2 -x {1.0 3.1 7 ------- null}
- -t 0.13709 -s 2 -d 3 -p cbr -e 210 -c 2 -i 7 -a 2 -x {1.0 3.1 7 ------- null}
h -t 0.13709 -s 2 -d 3 -p cbr -e 210 -c 2 -i 7 -a 2 -x {1.0 3.1 -1 ------- null}
+ -t 0.1375 -s 1 -d 2 -p cbr -e 210 -c 2 -i 10 -a 2 -x {1.0 3.1 10 ------- null}
- -t 0.1375 -s 1 -d 2 -p cbr -e 210 -c 2 -i 10 -a 2 -x {1.0 3.1 10 ------- null}
h -t 0.1375 -s 1 -d 2 -p cbr -e 210 -c 2 -i 10 -a 2 -x {1.0 3.1 -1 ------- null}
r -t 0.14079 -s 2 -d 3 -p cbr -e 210 -c 2 -i 5 -a 2 -x {1.0 3.1 5 ------- null}
r -t 0.14084 -s 1 -d 2 -p cbr -e 210 -c 2 -i 8 -a 2 -x {1.0 3.1 8 ------- null}
+ -t 0.14084 -s 2 -d 3 -p cbr -e 210 -c 2 -i 8 -a 2 -x {1.0 3.1 8 ------- null}
- -t 0.14084 -s 2 -d 3 -p cbr -e 210 -c 2 -i 8 -a 2 -x {1.0 3.1 8 ------- null}
h -t 0.14084 -s 2 -d 3 -p cbr -e 210 -c 2 -i 8 -a 2 -x {1.0 3.1 -1 ------- null}
+ -t 0.14125 -s 1 -d 2 -p cbr -e 210 -c 2 -i 11 -a 2 -x {1.0 3.1 11 ------- null}
- -t 0.14125 -s 1 -d 2 -p cbr -e 210 -c 2 -i 11 -a 2 -x {1.0 3.1 11 ------- null}
h -t 0.14125 -s 1 -d 2 -p cbr -e 210 -c 2 -i 11 -a 2 -x {1.0 3.1 -1 ------- null}
r -t 0.14454 -s 2 -d 3 -p cbr -e 210 -c 2 -i 6 -a 2 -x {1.0 3.1 6 ------- null}
r -t 0.14459 -s 1 -d 2 -p cbr -e 210 -c 2 -i 9 -a 2 -x {1.0 3.1 9 ------- null}
+ -t 0.14459 -s 2 -d 3 -p cbr -e 210 -c 2 -i 9 -a 2 -x {1.0 3.1 9 ------- null}
- -t 0.14459 -s 2 -d 3 -p cbr -e 210 -c 2 -i 9 -a 2 -x {1.0 3.1 9 ------- null}
h -t 0.14459 -s 2 -d 3 -p cbr -e 210 -c 2 -i 9 -a 2 -x {1.0 3.1 -1 ------- null}
+ -t 0.145 -s 1 -d 2 -p cbr -e 210 -c 2 -i 12 -a 2 -x {1.0 3.1 12 ------- null}
- -t 0.145 -s 1 -d 2 -p cbr -e 210 -c 2 -i 12 -a 2 -x {1.0 3.1 12 ------- null}
h -t 0.145 -s 1 -d 2 -p cbr -e 210 -c 2 -i 12 -a 2 -x {1.0 3.1 -1 ------- null}
r -t 0.14829 -s 2 -d 3 -p cbr -e 210 -c 2 -i 7 -a 2 -x {1.0 3.1 7 ------- null}
r -t 0.14834 -s 1 -d 2 -p cbr -e 210 -c 2 -i 10 -a 2 -x {1.0 3.1 10 ------- null}
+ -t 0.14834 -s 2 -d 3 -p cbr -e 210 -c 2 -i 10 -a 2 -x {1.0 3.1 10 ------- null}
- -t 0.14834 -s 2 -d 3 -p cbr -e 210 -c 2 -i 10 -a 2 -x {1.0 3.1 10 ------- null}
h -t 0.14834 -s 2 -d 3 -p cbr -e 210 -c 2 -i 10 -a 2 -x {1.0 3.1 -1 ------- null}
+ -t 0.14875 -s 1 -d 2 -p cbr -e 210 -c 2 -i 13 -a 2 -x {1.0 3.1 13 ------- null}
- -t 0.14875 -s 1 -d 2 -p cbr -e 210 -c 2 -i 13 -a 2 -x {1.0 3.1 13 ------- null}
h -t 0.14875 -s 1 -d 2 -p cbr -e 210 -c 2 -i 13 -a 2 -x {1.0 3.1 -1 ------- null}
r -t 0.15204 -s 2 -d 3 -p cbr -e 210 -c 2 -i 8 -a 2 -x {1.0 3.1 8 ------- null}
r -t 0.15209 -s 1 -d 2 -p cbr -e 210 -c 2 -i 11 -a 2 -x {1.0 3.1 11 ------- null}
+ -t 0.15209 -s 2 -d 3 -p cbr -e 210 -c 2 -i 11 -a 2 -x {1.0 3.1 11 ------- null}
- -t 0.15209 -s 2 -d 3 -p cbr -e 210 -c 2 -i 11 -a 2 -x {1.0 3.1 11 ------- null}
h -t 0.15209 -s 2 -d 3 -p cbr -e 210 -c 2 -i 11 -a 2 -x {1.0 3.1 -1 ------- null}
+ -t 0.1525 -s 1 -d 2 -p cbr -e 210 -c 2 -i 14 -a 2 -x {1.0 3.1 14 ------- null}
- -t 0.1525 -s 1 -d 2 -p cbr -e 210 -c 2 -i 14 -a 2 -x {1.0 3.1 14 ------- null}
h -t 0.1525 -s 1 -d 2 -p cbr -e 210 -c 2 -i 14 -a 2 -x {1.0 3.1 -1 ------- null}
r -t 0.15579 -s 2 -d 3 -p cbr -e 210 -c 2 -i 9 -a 2 -x {1.0 3.1 9 ------- null}
r -t 0.15584 -s 1 -d 2 -p cbr -e 210 -c 2 -i 12 -a 2 -x {1.0 3.1 12 ------- null}
+ -t 0.15584 -s 2 -d 3 -p cbr -e 210 -c 2 -i 12 -a 2 -x {1.0 3.1 12 ------- null}
- -t 0.15584 -s 2 -d 3 -p cbr -e 210 -c 2 -i 12 -a 2 -x {1.0 3.1 12 ------- null}
h -t 0.15584 -s 2 -d 3 -p cbr -e 210 -c 2 -i 12 -a 2 -x {1.0 3.1 -1 ------- null}
+ -t 0.15625 -s 1 -d 2 -p cbr -e 210 -c 2 -i 15 -a 2 -x {1.0 3.1 15 ------- null}
- -t 0.15625 -s 1 -d 2 -p cbr -e 210 -c 2 -i 15 -a 2 -x {1.0 3.1 15 ------- null}
h -t 0.15625 -s 1 -d 2 -p cbr -e 210 -c 2 -i 15 -a 2 -x {1.0 3.1 -1 ------- null}
r -t 0.15954 -s 2 -d 3 -p cbr -e 210 -c 2 -i 10 -a 2 -x {1.0 3.1 10 ------- null}
r -t 0.15959 -s 1 -d 2 -p cbr -e 210 -c 2 -i 13 -a 2 -x {1.0 3.1 13 ------- null}
+ -t 0.15959 -s 2 -d 3 -p cbr -e 210 -c 2 -i 13 -a 2 -x {1.0 3.1 13 ------- null}
- -t 0.15959 -s 2 -d 3 -p cbr -e 210 -c 2 -i 13 -a 2 -x {1.0 3.1 13 ------- null}
h -t 0.15959 -s 2 -d 3 -p cbr -e 210 -c 2 -i 13 -a 2 -x {1.0 3.1 -1 ------- null}
+ -t 0.16 -s 1 -d 2 -p cbr -e 210 -c 2 -i 16 -a 2 -x {1.0 3.1 16 ------- null}
- -t 0.16 -s 1 -d 2 -p cbr -e 210 -c 2 -i 16 -a 2 -x {1.0 3.1 16 ------- null}
h -t 0.16 -s 1 -d 2 -p cbr -e 210 -c 2 -i 16 -a 2 -x {1.0 3.1 -1 ------- null}
r -t 0.16329 -s 2 -d 3 -p cbr -e 210 -c 2 -i 11 -a 2 -x {1.0 3.1 11 ------- null}
r -t 0.16334 -s 1 -d 2 -p cbr -e 210 -c 2 -i 14 -a 2 -x {1.0 3.1 14 ------- null}
+ -t 0.16334 -s 2 -d 3 -p cbr -e 210 -c 2 -i 14 -a 2 -x {1.0 3.1 14 ------- null}
- -t 0.16334 -s 2 -d 3 -p cbr -e 210 -c 2 -i 14 -a 2 -x {1.0 3.1 14 ------- null}
h -t 0.16334 -s 2 -d 3 -p cbr -e 210 -c 2 -i 14 -a 2 -x {1.0 3.1 -1 ------- null}
+ -t 0.16375 -s 1 -d 2 -p cbr -e 210 -c 2 -i 17 -a 2 -x {1.0 3.1 17 ------- null}
- -t 0.16375 -s 1 -d 2 -p cbr -e 210 -c 2 -i 17 -a 2 -x {1.0 3.1 17 ------- null}
h -t 0.16375 -s 1 -d 2 -p cbr -e 210 -c 2 -i 17 -a 2 -x {1.0 3.1 -1 ------- null}
r -t 0.16704 -s 2 -d 3 -p cbr -e 210 -c 2 -i 12 -a 2 -x {1.0 3.1 12 ------- null}
r -t 0.16709 -s 1 -d 2 -p cbr -e 210 -c 2 -i 15 -a 2 -x {1.0 3.1 15 ------- null}
+ -t 0.16709 -s 2 -d 3 -p cbr -e 210 -c 2 -i 15 -a 2 -x {1.0 3.1 15 ------- null}
- -t 0.16709 -s 2 -d 3 -p cbr -e 210 -c 2 -i 15 -a 2 -x {1.0 3.1 15 ------- null}
h -t 0.16709 -s 2 -d 3 -p cbr -e 210 -c 2 -i 15 -a 2 -x {1.0 3.1 -1 ------- null}
+ -t 0.1675 -s 1 -d 2 -p cbr -e 210 -c 2 -i 18 -a 2 -x {1.0 3.1 18 ------- null}
- -t 0.1675 -s 1 -d 2 -p cbr -e 210 -c 2 -i 18 -a 2 -x {1.0 3.1 18 ------- null}
h -t 0.1675 -s 1 -d 2 -p cbr -e 210 -c 2 -i 18 -a 2 -x {1.0 3.1 -1 ------- null}
r -t 0.17079 -s 2 -d 3 -p cbr -e 210 -c 2 -i 13 -a 2 -x {1.0 3.1 13 ------- null}
r -t 0.17084 -s 1 -d 2 -p cbr -e 210 -c 2 -i 16 -a 2 -x {1.0 3.1 16 ------- null}
+ -t 0.17084 -s 2 -d 3 -p cbr -e 210 -c 2 -i 16 -a 2 -x {1.0 3.1 16 ------- null}
- -t 0.17084 -s 2 -d 3 -p cbr -e 210 -c 2 -i 16 -a 2 -x {1.0 3.1 16 ------- null}
h -t 0.17084 -s 2 -d 3 -p cbr -e 210 -c 2 -i 16 -a 2 -x {1.0 3.1 -1 ------- null}
+ -t 0.17125 -s 1 -d 2 -p cbr -e 210 -c 2 -i 19 -a 2 -x {1.0 3.1 19 ------- null}
- -t 0.17125 -s 1 -d 2 -p cbr -e 210 -c 2 -i 19 -a 2 -x {1.0 3.1 19 ------- null}
h -t 0.17125 -s 1 -d 2 -p cbr -e 210 -c 2 -i 19 -a 2 -x {1.0 3.1 -1 ------- null}
r -t 0.17454 -s 2 -d 3 -p cbr -e 210 -c 2 -i 14 -a 2 -x {1.0 3.1 14 ------- null}
r -t 0.17459 -s 1 -d 2 -p cbr -e 210 -c 2 -i 17 -a 2 -x {1.0 3.1 17 ------- null}
+ -t 0.17459 -s 2 -d 3 -p cbr -e 210 -c 2 -i 17 -a 2 -x {1.0 3.1 17 ------- null}
- -t 0.17459 -s 2 -d 3 -p cbr -e 210 -c 2 -i 17 -a 2 -x {1.0 3.1 17 ------- null}
h -t 0.17459 -s 2 -d 3 -p cbr -e 210 -c 2 -i 17 -a 2 -x {1.0 3.1 -1 ------- null}
+ -t 0.175 -s 1 -d 2 -p cbr -e 210 -c 2 -i 20 -a 2 -x {1.0 3.1 20 ------- null}
- -t 0.175 -s 1 -d 2 -p cbr -e 210 -c 2 -i 20 -a 2 -x {1.0 3.1 20 ------- null}
h -t 0.175 -s 1 -d 2 -p cbr -e 210 -c 2 -i 20 -a 2 -x {1.0 3.1 -1 ------- null}
r -t 0.17829 -s 2 -d 3 -p cbr -e 210 -c 2 -i 15 -a 2 -x {1.0 3.1 15 ------- null}
r -t 0.17834 -s 1 -d 2 -p cbr -e 210 -c 2 -i 18 -a 2 -x {1.0 3.1 18 ------- null}
+ -t 0.17834 -s 2 -d 3 -p cbr -e 210 -c 2 -i 18 -a 2 -x {1.0 3.1 18 ------- null}
- -t 0.17834 -s 2 -d 3 -p cbr -e 210 -c 2 -i 18 -a 2 -x {1.0 3.1 18 ------- null}
h -t 0.17834 -s 2 -d 3 -p cbr -e 210 -c 2 -i 18 -a 2 -x {1.0 3.1 -1 ------- null}
+ -t 0.17875 -s 1 -d 2 -p cbr -e 210 -c 2 -i 21 -a 2 -x {1.0 3.1 21 ------- null}
- -t 0.17875 -s 1 -d 2 -p cbr -e 210 -c 2 -i 21 -a 2 -x {1.0 3.1 21 ------- null}
h -t 0.17875 -s 1 -d 2 -p cbr -e 210 -c 2 -i 21 -a 2 -x {1.0 3.1 -1 ------- null}
r -t 0.18204 -s 2 -d 3 -p cbr -e 210 -c 2 -i 16 -a 2 -x {1.0 3.1 16 ------- null}
r -t 0.18209 -s 1 -d 2 -p cbr -e 210 -c 2 -i 19 -a 2 -x {1.0 3.1 19 ------- null}
+ -t 0.18209 -s 2 -d 3 -p cbr -e 210 -c 2 -i 19 -a 2 -x {1.0 3.1 19 ------- null}
- -t 0.18209 -s 2 -d 3 -p cbr -e 210 -c 2 -i 19 -a 2 -x {1.0 3.1 19 ------- null}
h -t 0.18209 -s 2 -d 3 -p cbr -e 210 -c 2 -i 19 -a 2 -x {1.0 3.1 -1 ------- null}
+ -t 0.1825 -s 1 -d 2 -p cbr -e 210 -c 2 -i 22 -a 2 -x {1.0 3.1 22 ------- null}
- -t 0.1825 -s 1 -d 2 -p cbr -e 210 -c 2 -i 22 -a 2 -x {1.0 3.1 22 ------- null}
h -t 0.1825 -s 1 -d 2 -p cbr -e 210 -c 2 -i 22 -a 2 -x {1.0 3.1 -1 ------- null}
r -t 0.18579 -s 2 -d 3 -p cbr -e 210 -c 2 -i 17 -a 2 -x {1.0 3.1 17 ------- null}
r -t 0.18584 -s 1 -d 2 -p cbr -e 210 -c 2 -i 20 -a 2 -x {1.0 3.1 20 ------- null}
+ -t 0.18584 -s 2 -d 3 -p cbr -e 210 -c 2 -i 20 -a 2 -x {1.0 3.1 20 ------- null}
- -t 0.18584 -s 2 -d 3 -p cbr -e 210 -c 2 -i 20 -a 2 -x {1.0 3.1 20 ------- null}
h -t 0.18584 -s 2 -d 3 -p cbr -e 210 -c 2 -i 20 -a 2 -x {1.0 3.1 -1 ------- null}
+ -t 0.18625 -s 1 -d 2 -p cbr -e 210 -c 2 -i 23 -a 2 -x {1.0 3.1 23 ------- null}
- -t 0.18625 -s 1 -d 2 -p cbr -e 210 -c 2 -i 23 -a 2 -x {1.0 3.1 23 ------- null}
h -t 0.18625 -s 1 -d 2 -p cbr -e 210 -c 2 -i 23 -a 2 -x {1.0 3.1 -1 ------- null}
r -t 0.18954 -s 2 -d 3 -p cbr -e 210 -c 2 -i 18 -a 2 -x {1.0 3.1 18 ------- null}
r -t 0.18959 -s 1 -d 2 -p cbr -e 210 -c 2 -i 21 -a 2 -x {1.0 3.1 21 ------- null}
+ -t 0.18959 -s 2 -d 3 -p cbr -e 210 -c 2 -i 21 -a 2 -x {1.0 3.1 21 ------- null}
- -t 0.18959 -s 2 -d 3 -p cbr -e 210 -c 2 -i 21 -a 2 -x {1.0 3.1 21 ------- null}
h -t 0.18959 -s 2 -d 3 -p cbr -e 210 -c 2 -i 21 -a 2 -x {1.0 3.1 -1 ------- null}
+ -t 0.19 -s 1 -d 2 -p cbr -e 210 -c 2 -i 24 -a 2 -x {1.0 3.1 24 ------- null}
- -t 0.19 -s 1 -d 2 -p cbr -e 210 -c 2 -i 24 -a 2 -x {1.0 3.1 24 ------- null}
h -t 0.19 -s 1 -d 2 -p cbr -e 210 -c 2 -i 24 -a 2 -x {1.0 3.1 -1 ------- null}
r -t 0.19329 -s 2 -d 3 -p cbr -e 210 -c 2 -i 19 -a 2 -x {1.0 3.1 19 ------- null}
r -t 0.19334 -s 1 -d 2 -p cbr -e 210 -c 2 -i 22 -a 2 -x {1.0 3.1 22 ------- null}
+ -t 0.19334 -s 2 -d 3 -p cbr -e 210 -c 2 -i 22 -a 2 -x {1.0 3.1 22 ------- null}
- -t 0.19334 -s 2 -d 3 -p cbr -e 210 -c 2 -i 22 -a 2 -x {1.0 3.1 22 ------- null}
h -t 0.19334 -s 2 -d 3 -p cbr -e 210 -c 2 -i 22 -a 2 -x {1.0 3.1 -1 ------- null}
+ -t 0.19375 -s 1 -d 2 -p cbr -e 210 -c 2 -i 25 -a 2 -x {1.0 3.1 25 ------- null}
- -t 0.19375 -s 1 -d 2 -p cbr -e 210 -c 2 -i 25 -a 2 -x {1.0 3.1 25 ------- null}
h -t 0.19375 -s 1 -d 2 -p cbr -e 210 -c 2 -i 25 -a 2 -x {1.0 3.1 -1 ------- null}
r -t 0.19704 -s 2 -d 3 -p cbr -e 210 -c 2 -i 20 -a 2 -x {1.0 3.1 20 ------- null}
r -t 0.19709 -s 1 -d 2 -p cbr -e 210 -c 2 -i 23 -a 2 -x {1.0 3.1 23 ------- null}
+ -t 0.19709 -s 2 -d 3 -p cbr -e 210 -c 2 -i 23 -a 2 -x {1.0 3.1 23 ------- null}
- -t 0.19709 -s 2 -d 3 -p cbr -e 210 -c 2 -i 23 -a 2 -x {1.0 3.1 23 ------- null}
h -t 0.19709 -s 2 -d 3 -p cbr -e 210 -c 2 -i 23 -a 2 -x {1.0 3.1 -1 ------- null}
+ -t 0.1975 -s 1 -d 2 -p cbr -e 210 -c 2 -i 26 -a 2 -x {1.0 3.1 26 ------- null}
- -t 0.1975 -s 1 -d 2 -p cbr -e 210 -c 2 -i 26 -a 2 -x {1.0 3.1 26 ------- null}
h -t 0.1975 -s 1 -d 2 -p cbr -e 210 -c 2 -i 26 -a 2 -x {1.0 3.1 -1 ------- null}
+ -t 0.2 -s 0 -d 2 -p tcp -e 40 -c 1 -i 27 -a 1 -x {0.0 3.0 0 ------- null}
- -t 0.2 -s 0 -d 2 -p tcp -e 40 -c 1 -i 27 -a 1 -x {0.0 3.0 0 ------- null}
h -t 0.2 -s 0 -d 2 -p tcp -e 40 -c 1 -i 27 -a 1 -x {0.0 3.0 -1 ------- null}
r -t 0.20079 -s 2 -d 3 -p cbr -e 210 -c 2 -i 21 -a 2 -x {1.0 3.1 21 ------- null}
r -t 0.20084 -s 1 -d 2 -p cbr -e 210 -c 2 -i 24 -a 2 -x {1.0 3.1 24 ------- null}
+ -t 0.20084 -s 2 -d 3 -p cbr -e 210 -c 2 -i 24 -a 2 -x {1.0 3.1 24 ------- null}
- -t 0.20084 -s 2 -d 3 -p cbr -e 210 -c 2 -i 24 -a 2 -x {1.0 3.1 24 ------- null}
h -t 0.20084 -s 2 -d 3 -p cbr -e 210 -c 2 -i 24 -a 2 -x {1.0 3.1 -1 ------- null}
+ -t 0.20125 -s 1 -d 2 -p cbr -e 210 -c 2 -i 28 -a 2 -x {1.0 3.1 27 ------- null}
- -t 0.20125 -s 1 -d 2 -p cbr -e 210 -c 2 -i 28 -a 2 -x {1.0 3.1 27 ------- null}
h -t 0.20125 -s 1 -d 2 -p cbr -e 210 -c 2 -i 28 -a 2 -x {1.0 3.1 -1 ------- null}
r -t 0.20454 -s 2 -d 3 -p cbr -e 210 -c 2 -i 22 -a 2 -x {1.0 3.1 22 ------- null}
r -t 0.20459 -s 1 -d 2 -p cbr -e 210 -c 2 -i 25 -a 2 -x {1.0 3.1 25 ------- null}
+ -t 0.20459 -s 2 -d 3 -p cbr -e 210 -c 2 -i 25 -a 2 -x {1.0 3.1 25 ------- null}
- -t 0.20459 -s 2 -d 3 -p cbr -e 210 -c 2 -i 25 -a 2 -x {1.0 3.1 25 ------- null}
h -t 0.20459 -s 2 -d 3 -p cbr -e 210 -c 2 -i 25 -a 2 -x {1.0 3.1 -1 ------- null}
+ -t 0.205 -s 1 -d 2 -p cbr -e 210 -c 2 -i 29 -a 2 -x {1.0 3.1 28 ------- null}
- -t 0.205 -s 1 -d 2 -p cbr -e 210 -c 2 -i 29 -a 2 -x {1.0 3.1 28 ------- null}
h -t 0.205 -s 1 -d 2 -p cbr -e 210 -c 2 -i 29 -a 2 -x {1.0 3.1 -1 ------- null}
r -t 0.20829 -s 2 -d 3 -p cbr -e 210 -c 2 -i 23 -a 2 -x {1.0 3.1 23 ------- null}
r -t 0.20834 -s 1 -d 2 -p cbr -e 210 -c 2 -i 26 -a 2 -x {1.0 3.1 26 ------- null}
+ -t 0.20834 -s 2 -d 3 -p cbr -e 210 -c 2 -i 26 -a 2 -x {1.0 3.1 26 ------- null}
- -t 0.20834 -s 2 -d 3 -p cbr -e 210 -c 2 -i 26 -a 2 -x {1.0 3.1 26 ------- null}
h -t 0.20834 -s 2 -d 3 -p cbr -e 210 -c 2 -i 26 -a 2 -x {1.0 3.1 -1 ------- null}
+ -t 0.20875 -s 1 -d 2 -p cbr -e 210 -c 2 -i 30 -a 2 -x {1.0 3.1 29 ------- null}
- -t 0.20875 -s 1 -d 2 -p cbr -e 210 -c 2 -i 30 -a 2 -x {1.0 3.1 29 ------- null}
h -t 0.20875 -s 1 -d 2 -p cbr -e 210 -c 2 -i 30 -a 2 -x {1.0 3.1 -1 ------- null}
r -t 0.21016 -s 0 -d 2 -p tcp -e 40 -c 1 -i 27 -a 1 -x {0.0 3.0 0 ------- null}
+ -t 0.21016 -s 2 -d 3 -p tcp -e 40 -c 1 -i 27 -a 1 -x {0.0 3.0 0 ------- null}
- -t 0.21016 -s 2 -d 3 -p tcp -e 40 -c 1 -i 27 -a 1 -x {0.0 3.0 0 ------- null}
h -t 0.21016 -s 2 -d 3 -p tcp -e 40 -c 1 -i 27 -a 1 -x {0.0 3.0 -1 ------- null}
r -t 0.21204 -s 2 -d 3 -p cbr -e 210 -c 2 -i 24 -a 2 -x {1.0 3.1 24 ------- null}
r -t 0.21209 -s 1 -d 2 -p cbr -e 210 -c 2 -i 28 -a 2 -x {1.0 3.1 27 ------- null}
+ -t 0.21209 -s 2 -d 3 -p cbr -e 210 -c 2 -i 28 -a 2 -x {1.0 3.1 27 ------- null}
- -t 0.21209 -s 2 -d 3 -p cbr -e 210 -c 2 -i 28 -a 2 -x {1.0 3.1 27 ------- null}
h -t 0.21209 -s 2 -d 3 -p cbr -e 210 -c 2 -i 28 -a 2 -x {1.0 3.1 -1 ------- null}
+ -t 0.2125 -s 1 -d 2 -p cbr -e 210 -c 2 -i 31 -a 2 -x {1.0 3.1 30 ------- null}
- -t 0.2125 -s 1 -d 2 -p cbr -e 210 -c 2 -i 31 -a 2 -x {1.0 3.1 30 ------- null}
h -t 0.2125 -s 1 -d 2 -p cbr -e 210 -c 2 -i 31 -a 2 -x {1.0 3.1 -1 ------- null}
r -t 0.21579 -s 2 -d 3 -p cbr -e 210 -c 2 -i 25 -a 2 -x {1.0 3.1 25 ------- null}
r -t 0.21584 -s 1 -d 2 -p cbr -e 210 -c 2 -i 29 -a 2 -x {1.0 3.1 28 ------- null}
+ -t 0.21584 -s 2 -d 3 -p cbr -e 210 -c 2 -i 29 -a 2 -x {1.0 3.1 28 ------- null}
- -t 0.21584 -s 2 -d 3 -p cbr -e 210 -c 2 -i 29 -a 2 -x {1.0 3.1 28 ------- null}
h -t 0.21584 -s 2 -d 3 -p cbr -e 210 -c 2 -i 29 -a 2 -x {1.0 3.1 -1 ------- null}
+ -t 0.21625 -s 1 -d 2 -p cbr -e 210 -c 2 -i 32 -a 2 -x {1.0 3.1 31 ------- null}
- -t 0.21625 -s 1 -d 2 -p cbr -e 210 -c 2 -i 32 -a 2 -x {1.0 3.1 31 ------- null}
h -t 0.21625 -s 1 -d 2 -p cbr -e 210 -c 2 -i 32 -a 2 -x {1.0 3.1 -1 ------- null}
r -t 0.21954 -s 2 -d 3 -p cbr -e 210 -c 2 -i 26 -a 2 -x {1.0 3.1 26 ------- null}
r -t 0.21959 -s 1 -d 2 -p cbr -e 210 -c 2 -i 30 -a 2 -x {1.0 3.1 29 ------- null}
+ -t 0.21959 -s 2 -d 3 -p cbr -e 210 -c 2 -i 30 -a 2 -x {1.0 3.1 29 ------- null}
- -t 0.21959 -s 2 -d 3 -p cbr -e 210 -c 2 -i 30 -a 2 -x {1.0 3.1 29 ------- null}
h -t 0.21959 -s 2 -d 3 -p cbr -e 210 -c 2 -i 30 -a 2 -x {1.0 3.1 -1 ------- null}
+ -t 0.22 -s 1 -d 2 -p cbr -e 210 -c 2 -i 33 -a 2 -x {1.0 3.1 32 ------- null}
- -t 0.22 -s 1 -d 2 -p cbr -e 210 -c 2 -i 33 -a 2 -x {1.0 3.1 32 ------- null}
h -t 0.22 -s 1 -d 2 -p cbr -e 210 -c 2 -i 33 -a 2 -x {1.0 3.1 -1 ------- null}
r -t 0.220388571428571 -s 2 -d 3 -p tcp -e 40 -c 1 -i 27 -a 1 -x {0.0 3.0 0 ------- null}
+ -t 0.220388571428571 -s 3 -d 2 -p ack -e 40 -c 1 -i 34 -a 1 -x {3.0 0.0 0 ------- null}
- -t 0.220388571428571 -s 3 -d 2 -p ack -e 40 -c 1 -i 34 -a 1 -x {3.0 0.0 0 ------- null}
h -t 0.220388571428571 -s 3 -d 2 -p ack -e 40 -c 1 -i 34 -a 1 -x {3.0 0.0 -1 ------- null}
r -t 0.22329 -s 2 -d 3 -p cbr -e 210 -c 2 -i 28 -a 2 -x {1.0 3.1 27 ------- null}
r -t 0.22334 -s 1 -d 2 -p cbr -e 210 -c 2 -i 31 -a 2 -x {1.0 3.1 30 ------- null}
+ -t 0.22334 -s 2 -d 3 -p cbr -e 210 -c 2 -i 31 -a 2 -x {1.0 3.1 30 ------- null}
- -t 0.22334 -s 2 -d 3 -p cbr -e 210 -c 2 -i 31 -a 2 -x {1.0 3.1 30 ------- null}
h -t 0.22334 -s 2 -d 3 -p cbr -e 210 -c 2 -i 31 -a 2 -x {1.0 3.1 -1 ------- null}
+ -t 0.22375 -s 1 -d 2 -p cbr -e 210 -c 2 -i 35 -a 2 -x {1.0 3.1 33 ------- null}
- -t 0.22375 -s 1 -d 2 -p cbr -e 210 -c 2 -i 35 -a 2 -x {1.0 3.1 33 ------- null}
h -t 0.22375 -s 1 -d 2 -p cbr -e 210 -c 2 -i 35 -a 2 -x {1.0 3.1 -1 ------- null}
r -t 0.22704 -s 2 -d 3 -p cbr -e 210 -c 2 -i 29 -a 2 -x {1.0 3.1 28 ------- null}
r -t 0.22709 -s 1 -d 2 -p cbr -e 210 -c 2 -i 32 -a 2 -x {1.0 3.1 31 ------- null}
+ -t 0.22709 -s 2 -d 3 -p cbr -e 210 -c 2 -i 32 -a 2 -x {1.0 3.1 31 ------- null}
- -t 0.22709 -s 2 -d 3 -p cbr -e 210 -c 2 -i 32 -a 2 -x {1.0 3.1 31 ------- null}
h -t 0.22709 -s 2 -d 3 -p cbr -e 210 -c 2 -i 32 -a 2 -x {1.0 3.1 -1 ------- null}
+ -t 0.2275 -s 1 -d 2 -p cbr -e 210 -c 2 -i 36 -a 2 -x {1.0 3.1 34 ------- null}
- -t 0.2275 -s 1 -d 2 -p cbr -e 210 -c 2 -i 36 -a 2 -x {1.0 3.1 34 ------- null}
h -t 0.2275 -s 1 -d 2 -p cbr -e 210 -c 2 -i 36 -a 2 -x {1.0 3.1 -1 ------- null}
r -t 0.230617142857143 -s 3 -d 2 -p ack -e 40 -c 1 -i 34 -a 1 -x {3.0 0.0 0 ------- null}
+ -t 0.230617142857143 -s 2 -d 0 -p ack -e 40 -c 1 -i 34 -a 1 -x {3.0 0.0 0 ------- null}
- -t 0.230617142857143 -s 2 -d 0 -p ack -e 40 -c 1 -i 34 -a 1 -x {3.0 0.0 0 ------- null}
h -t 0.230617142857143 -s 2 -d 0 -p ack -e 40 -c 1 -i 34 -a 1 -x {3.0 0.0 -1 ------- null}
r -t 0.23079 -s 2 -d 3 -p cbr -e 210 -c 2 -i 30 -a 2 -x {1.0 3.1 29 ------- null}
r -t 0.23084 -s 1 -d 2 -p cbr -e 210 -c 2 -i 33 -a 2 -x {1.0 3.1 32 ------- null}
+ -t 0.23084 -s 2 -d 3 -p cbr -e 210 -c 2 -i 33 -a 2 -x {1.0 3.1 32 ------- null}
- -t 0.23084 -s 2 -d 3 -p cbr -e 210 -c 2 -i 33 -a 2 -x {1.0 3.1 32 ------- null}
h -t 0.23084 -s 2 -d 3 -p cbr -e 210 -c 2 -i 33 -a 2 -x {1.0 3.1 -1 ------- null}
+ -t 0.23125 -s 1 -d 2 -p cbr -e 210 -c 2 -i 37 -a 2 -x {1.0 3.1 35 ------- null}
- -t 0.23125 -s 1 -d 2 -p cbr -e 210 -c 2 -i 37 -a 2 -x {1.0 3.1 35 ------- null}
h -t 0.23125 -s 1 -d 2 -p cbr -e 210 -c 2 -i 37 -a 2 -x {1.0 3.1 -1 ------- null}
r -t 0.23454 -s 2 -d 3 -p cbr -e 210 -c 2 -i 31 -a 2 -x {1.0 3.1 30 ------- null}
r -t 0.23459 -s 1 -d 2 -p cbr -e 210 -c 2 -i 35 -a 2 -x {1.0 3.1 33 ------- null}
+ -t 0.23459 -s 2 -d 3 -p cbr -e 210 -c 2 -i 35 -a 2 -x {1.0 3.1 33 ------- null}
- -t 0.23459 -s 2 -d 3 -p cbr -e 210 -c 2 -i 35 -a 2 -x {1.0 3.1 33 ------- null}
h -t 0.23459 -s 2 -d 3 -p cbr -e 210 -c 2 -i 35 -a 2 -x {1.0 3.1 -1 ------- null}
+ -t 0.235 -s 1 -d 2 -p cbr -e 210 -c 2 -i 38 -a 2 -x {1.0 3.1 36 ------- null}
- -t 0.235 -s 1 -d 2 -p cbr -e 210 -c 2 -i 38 -a 2 -x {1.0 3.1 36 ------- null}
h -t 0.235 -s 1 -d 2 -p cbr -e 210 -c 2 -i 38 -a 2 -x {1.0 3.1 -1 ------- null}
r -t 0.23829 -s 2 -d 3 -p cbr -e 210 -c 2 -i 32 -a 2 -x {1.0 3.1 31 ------- null}
r -t 0.23834 -s 1 -d 2 -p cbr -e 210 -c 2 -i 36 -a 2 -x {1.0 3.1 34 ------- null}
+ -t 0.23834 -s 2 -d 3 -p cbr -e 210 -c 2 -i 36 -a 2 -x {1.0 3.1 34 ------- null}
- -t 0.23834 -s 2 -d 3 -p cbr -e 210 -c 2 -i 36 -a 2 -x {1.0 3.1 34 ------- null}
h -t 0.23834 -s 2 -d 3 -p cbr -e 210 -c 2 -i 36 -a 2 -x {1.0 3.1 -1 ------- null}
+ -t 0.23875 -s 1 -d 2 -p cbr -e 210 -c 2 -i 39 -a 2 -x {1.0 3.1 37 ------- null}
- -t 0.23875 -s 1 -d 2 -p cbr -e 210 -c 2 -i 39 -a 2 -x {1.0 3.1 37 ------- null}
h -t 0.23875 -s 1 -d 2 -p cbr -e 210 -c 2 -i 39 -a 2 -x {1.0 3.1 -1 ------- null}
r -t 0.240777142857143 -s 2 -d 0 -p ack -e 40 -c 1 -i 34 -a 1 -x {3.0 0.0 0 ------- null}
+ -t 0.240777142857143 -s 0 -d 2 -p tcp -e 1040 -c 1 -i 40 -a 1 -x {0.0 3.0 1 ------- null}
- -t 0.240777142857143 -s 0 -d 2 -p tcp -e 1040 -c 1 -i 40 -a 1 -x {0.0 3.0 1 ------- null}
h -t 0.240777142857143 -s 0 -d 2 -p tcp -e 1040 -c 1 -i 40 -a 1 -x {0.0 3.0 -1 ------- null}
+ -t 0.240777142857143 -s 0 -d 2 -p tcp -e 1040 -c 1 -i 41 -a 1 -x {0.0 3.0 2 ------- null}
r -t 0.24204 -s 2 -d 3 -p cbr -e 210 -c 2 -i 33 -a 2 -x {1.0 3.1 32 ------- null}
r -t 0.24209 -s 1 -d 2 -p cbr -e 210 -c 2 -i 37 -a 2 -x {1.0 3.1 35 ------- null}
+ -t 0.24209 -s 2 -d 3 -p cbr -e 210 -c 2 -i 37 -a 2 -x {1.0 3.1 35 ------- null}
- -t 0.24209 -s 2 -d 3 -p cbr -e 210 -c 2 -i 37 -a 2 -x {1.0 3.1 35 ------- null}
h -t 0.24209 -s 2 -d 3 -p cbr -e 210 -c 2 -i 37 -a 2 -x {1.0 3.1 -1 ------- null}
+ -t 0.2425 -s 1 -d 2 -p cbr -e 210 -c 2 -i 42 -a 2 -x {1.0 3.1 38 ------- null}
- -t 0.2425 -s 1 -d 2 -p cbr -e 210 -c 2 -i 42 -a 2 -x {1.0 3.1 38 ------- null}
h -t 0.2425 -s 1 -d 2 -p cbr -e 210 -c 2 -i 42 -a 2 -x {1.0 3.1 -1 ------- null}
- -t 0.244937142857143 -s 0 -d 2 -p tcp -e 1040 -c 1 -i 41 -a 1 -x {0.0 3.0 2 ------- null}
h -t 0.244937142857143 -s 0 -d 2 -p tcp -e 1040 -c 1 -i 41 -a 1 -x {0.0 3.0 -1 ------- null}
r -t 0.24579 -s 2 -d 3 -p cbr -e 210 -c 2 -i 35 -a 2 -x {1.0 3.1 33 ------- null}
r -t 0.24584 -s 1 -d 2 -p cbr -e 210 -c 2 -i 38 -a 2 -x {1.0 3.1 36 ------- null}
+ -t 0.24584 -s 2 -d 3 -p cbr -e 210 -c 2 -i 38 -a 2 -x {1.0 3.1 36 ------- null}
- -t 0.24584 -s 2 -d 3 -p cbr -e 210 -c 2 -i 38 -a 2 -x {1.0 3.1 36 ------- null}
h -t 0.24584 -s 2 -d 3 -p cbr -e 210 -c 2 -i 38 -a 2 -x {1.0 3.1 -1 ------- null}
+ -t 0.24625 -s 1 -d 2 -p cbr -e 210 -c 2 -i 43 -a 2 -x {1.0 3.1 39 ------- null}
- -t 0.24625 -s 1 -d 2 -p cbr -e 210 -c 2 -i 43 -a 2 -x {1.0 3.1 39 ------- null}
h -t 0.24625 -s 1 -d 2 -p cbr -e 210 -c 2 -i 43 -a 2 -x {1.0 3.1 -1 ------- null}
r -t 0.24954 -s 2 -d 3 -p cbr -e 210 -c 2 -i 36 -a 2 -x {1.0 3.1 34 ------- null}
r -t 0.24959 -s 1 -d 2 -p cbr -e 210 -c 2 -i 39 -a 2 -x {1.0 3.1 37 ------- null}
+ -t 0.24959 -s 2 -d 3 -p cbr -e 210 -c 2 -i 39 -a 2 -x {1.0 3.1 37 ------- null}
- -t 0.24959 -s 2 -d 3 -p cbr -e 210 -c 2 -i 39 -a 2 -x {1.0 3.1 37 ------- null}
h -t 0.24959 -s 2 -d 3 -p cbr -e 210 -c 2 -i 39 -a 2 -x {1.0 3.1 -1 ------- null}
+ -t 0.25 -s 1 -d 2 -p cbr -e 210 -c 2 -i 44 -a 2 -x {1.0 3.1 40 ------- null}
- -t 0.25 -s 1 -d 2 -p cbr -e 210 -c 2 -i 44 -a 2 -x {1.0 3.1 40 ------- null}
h -t 0.25 -s 1 -d 2 -p cbr -e 210 -c 2 -i 44 -a 2 -x {1.0 3.1 -1 ------- null}
r -t 0.25329 -s 2 -d 3 -p cbr -e 210 -c 2 -i 37 -a 2 -x {1.0 3.1 35 ------- null}
r -t 0.25334 -s 1 -d 2 -p cbr -e 210 -c 2 -i 42 -a 2 -x {1.0 3.1 38 ------- null}
+ -t 0.25334 -s 2 -d 3 -p cbr -e 210 -c 2 -i 42 -a 2 -x {1.0 3.1 38 ------- null}
- -t 0.25334 -s 2 -d 3 -p cbr -e 210 -c 2 -i 42 -a 2 -x {1.0 3.1 38 ------- null}
h -t 0.25334 -s 2 -d 3 -p cbr -e 210 -c 2 -i 42 -a 2 -x {1.0 3.1 -1 ------- null}
+ -t 0.25375 -s 1 -d 2 -p cbr -e 210 -c 2 -i 45 -a 2 -x {1.0 3.1 41 ------- null}
- -t 0.25375 -s 1 -d 2 -p cbr -e 210 -c 2 -i 45 -a 2 -x {1.0 3.1 41 ------- null}
h -t 0.25375 -s 1 -d 2 -p cbr -e 210 -c 2 -i 45 -a 2 -x {1.0 3.1 -1 ------- null}
r -t 0.254937142857143 -s 0 -d 2 -p tcp -e 1040 -c 1 -i 40 -a 1 -x {0.0 3.0 1 ------- null}
+ -t 0.254937142857143 -s 2 -d 3 -p tcp -e 1040 -c 1 -i 40 -a 1 -x {0.0 3.0 1 ------- null}
- -t 0.254937142857143 -s 2 -d 3 -p tcp -e 1040 -c 1 -i 40 -a 1 -x {0.0 3.0 1 ------- null}
h -t 0.254937142857143 -s 2 -d 3 -p tcp -e 1040 -c 1 -i 40 -a 1 -x {0.0 3.0 -1 ------- null}
r -t 0.25704 -s 2 -d 3 -p cbr -e 210 -c 2 -i 38 -a 2 -x {1.0 3.1 36 ------- null}
r -t 0.25709 -s 1 -d 2 -p cbr -e 210 -c 2 -i 43 -a 2 -x {1.0 3.1 39 ------- null}
+ -t 0.25709 -s 2 -d 3 -p cbr -e 210 -c 2 -i 43 -a 2 -x {1.0 3.1 39 ------- null}
+ -t 0.2575 -s 1 -d 2 -p cbr -e 210 -c 2 -i 46 -a 2 -x {1.0 3.1 42 ------- null}
- -t 0.2575 -s 1 -d 2 -p cbr -e 210 -c 2 -i 46 -a 2 -x {1.0 3.1 42 ------- null}
h -t 0.2575 -s 1 -d 2 -p cbr -e 210 -c 2 -i 46 -a 2 -x {1.0 3.1 -1 ------- null}
r -t 0.259097142857143 -s 0 -d 2 -p tcp -e 1040 -c 1 -i 41 -a 1 -x {0.0 3.0 2 ------- null}
+ -t 0.259097142857143 -s 2 -d 3 -p tcp -e 1040 -c 1 -i 41 -a 1 -x {0.0 3.0 2 ------- null}
r -t 0.26079 -s 2 -d 3 -p cbr -e 210 -c 2 -i 39 -a 2 -x {1.0 3.1 37 ------- null}
r -t 0.26084 -s 1 -d 2 -p cbr -e 210 -c 2 -i 44 -a 2 -x {1.0 3.1 40 ------- null}
+ -t 0.26084 -s 2 -d 3 -p cbr -e 210 -c 2 -i 44 -a 2 -x {1.0 3.1 40 ------- null}
- -t 0.26088 -s 2 -d 3 -p cbr -e 210 -c 2 -i 43 -a 2 -x {1.0 3.1 39 ------- null}
h -t 0.26088 -s 2 -d 3 -p cbr -e 210 -c 2 -i 43 -a 2 -x {1.0 3.1 -1 ------- null}
+ -t 0.26125 -s 1 -d 2 -p cbr -e 210 -c 2 -i 47 -a 2 -x {1.0 3.1 43 ------- null}
- -t 0.26125 -s 1 -d 2 -p cbr -e 210 -c 2 -i 47 -a 2 -x {1.0 3.1 43 ------- null}