V -t * -v 1.0a5 -a 0
A -t * -n 1 -p 0 -o 0x7fffffff -c 30 -a 1
A -t * -h 1 -m 1073741823 -s 0
c -t * -i 1 -n Blue
c -t * -i 2 -n Red
n -t * -a 4 -s 4 -S UP -v circle -c black -i black
n -t * -a 0 -s 0 -S UP -v circle -c black -i black
n -t * -a 1 -s 1 -S UP -v circle -c black -i black
n -t * -a 2 -s 2 -S UP -v circle -c black -i black
n -t * -a 3 -s 3 -S UP -v circle -c black -i black
l -t * -s 2 -d 4 -S UP -r 1300000 -D 0.01 -c black
l -t * -s 0 -d 1 -S UP -r 1300000 -D 0.01 -c black
l -t * -s 0 -d 2 -S UP -r 300000 -D 0.01 -c black
l -t * -s 3 -d 1 -S UP -r 2000000 -D 0.01 -c black -o right-up
l -t * -s 2 -d 1 -S UP -r 1300000 -D 0.01 -c black -o left-up
l -t * -s 0 -d 4 -S UP -r 1300000 -D 0.01 -c black -o right-down
l -t * -s 1 -d 4 -S UP -r 1700000 -D 0.01 -c black -o up
l -t * -s 3 -d 0 -S UP -r 2000000 -D 0.01 -c black -o right-down
q -t * -s 2 -d 0 -a 0.5
q -t * -s 0 -d 2 -a 0.5
q -t * -s 0 -d 4 -a 0.5
q -t * -s 4 -d 0 -a 0.5
+ -t 0.4 -s 3 -d 0 -p tcp -e 40 -c 1 -i 0 -a 1 -x {3.0 4.0 0 ------- null}
- -t 0.4 -s 3 -d 0 -p tcp -e 40 -c 1 -i 0 -a 1 -x {3.0 4.0 0 ------- null}
h -t 0.4 -s 3 -d 0 -p tcp -e 40 -c 1 -i 0 -a 1 -x {3.0 4.0 -1 ------- null}
r -t 0.41016 -s 3 -d 0 -p tcp -e 40 -c 1 -i 0 -a 1 -x {3.0 4.0 0 ------- null}
+ -t 0.41016 -s 0 -d 4 -p tcp -e 40 -c 1 -i 0 -a 1 -x {3.0 4.0 0 ------- null}
- -t 0.41016 -s 0 -d 4 -p tcp -e 40 -c 1 -i 0 -a 1 -x {3.0 4.0 0 ------- null}
h -t 0.41016 -s 0 -d 4 -p tcp -e 40 -c 1 -i 0 -a 1 -x {3.0 4.0 -1 ------- null}
r -t 0.420406153846154 -s 0 -d 4 -p tcp -e 40 -c 1 -i 0 -a 1 -x {3.0 4.0 0 ------- null}
+ -t 0.420406153846154 -s 4 -d 0 -p ack -e 40 -c 1 -i 1 -a 1 -x {4.0 3.0 0 ------- null}
- -t 0.420406153846154 -s 4 -d 0 -p ack -e 40 -c 1 -i 1 -a 1 -x {4.0 3.0 0 ------- null}
h -t 0.420406153846154 -s 4 -d 0 -p ack -e 40 -c 1 -i 1 -a 1 -x {4.0 3.0 -1 ------- null}
r -t 0.430652307692308 -s 4 -d 0 -p ack -e 40 -c 1 -i 1 -a 1 -x {4.0 3.0 0 ------- null}
+ -t 0.430652307692308 -s 0 -d 3 -p ack -e 40 -c 1 -i 1 -a 1 -x {4.0 3.0 0 ------- null}
- -t 0.430652307692308 -s 0 -d 3 -p ack -e 40 -c 1 -i 1 -a 1 -x {4.0 3.0 0 ------- null}
h -t 0.430652307692308 -s 0 -d 3 -p ack -e 40 -c 1 -i 1 -a 1 -x {4.0 3.0 -1 ------- null}
r -t 0.440812307692308 -s 0 -d 3 -p ack -e 40 -c 1 -i 1 -a 1 -x {4.0 3.0 0 ------- null}
+ -t 0.440812307692308 -s 3 -d 0 -p tcp -e 1040 -c 1 -i 2 -a 1 -x {3.0 4.0 1 ------- null}
- -t 0.440812307692308 -s 3 -d 0 -p tcp -e 1040 -c 1 -i 2 -a 1 -x {3.0 4.0 1 ------- null}
h -t 0.440812307692308 -s 3 -d 0 -p tcp -e 1040 -c 1 -i 2 -a 1 -x {3.0 4.0 -1 ------- null}
+ -t 0.440812307692308 -s 3 -d 0 -p tcp -e 1040 -c 1 -i 3 -a 1 -x {3.0 4.0 2 ------- null}
- -t 0.444972307692308 -s 3 -d 0 -p tcp -e 1040 -c 1 -i 3 -a 1 -x {3.0 4.0 2 ------- null}
h -t 0.444972307692308 -s 3 -d 0 -p tcp -e 1040 -c 1 -i 3 -a 1 -x {3.0 4.0 -1 ------- null}
r -t 0.454972307692308 -s 3 -d 0 -p tcp -e 1040 -c 1 -i 2 -a 1 -x {3.0 4.0 1 ------- null}
+ -t 0.454972307692308 -s 0 -d 4 -p tcp -e 1040 -c 1 -i 2 -a 1 -x {3.0 4.0 1 ------- null}
- -t 0.454972307692308 -s 0 -d 4 -p tcp -e 1040 -c 1 -i 2 -a 1 -x {3.0 4.0 1 ------- null}
h -t 0.454972307692308 -s 0 -d 4 -p tcp -e 1040 -c 1 -i 2 -a 1 -x {3.0 4.0 -1 ------- null}
r -t 0.459132307692308 -s 3 -d 0 -p tcp -e 1040 -c 1 -i 3 -a 1 -x {3.0 4.0 2 ------- null}
+ -t 0.459132307692308 -s 0 -d 4 -p tcp -e 1040 -c 1 -i 3 -a 1 -x {3.0 4.0 2 ------- null}
- -t 0.461372307692308 -s 0 -d 4 -p tcp -e 1040 -c 1 -i 3 -a 1 -x {3.0 4.0 2 ------- null}
h -t 0.461372307692308 -s 0 -d 4 -p tcp -e 1040 -c 1 -i 3 -a 1 -x {3.0 4.0 -1 ------- null}
r -t 0.471372307692308 -s 0 -d 4 -p tcp -e 1040 -c 1 -i 2 -a 1 -x {3.0 4.0 1 ------- null}
+ -t 0.471372307692308 -s 4 -d 0 -p ack -e 40 -c 1 -i 4 -a 1 -x {4.0 3.0 1 ------- null}
- -t 0.471372307692308 -s 4 -d 0 -p ack -e 40 -c 1 -i 4 -a 1 -x {4.0 3.0 1 ------- null}
h -t 0.471372307692308 -s 4 -d 0 -p ack -e 40 -c 1 -i 4 -a 1 -x {4.0 3.0 -1 ------- null}
r -t 0.477772307692308 -s 0 -d 4 -p tcp -e 1040 -c 1 -i 3 -a 1 -x {3.0 4.0 2 ------- null}
+ -t 0.477772307692308 -s 4 -d 0 -p ack -e 40 -c 1 -i 5 -a 1 -x {4.0 3.0 2 ------- null}
- -t 0.477772307692308 -s 4 -d 0 -p ack -e 40 -c 1 -i 5 -a 1 -x {4.0 3.0 2 ------- null}
h -t 0.477772307692308 -s 4 -d 0 -p ack -e 40 -c 1 -i 5 -a 1 -x {4.0 3.0 -1 ------- null}
r -t 0.481618461538462 -s 4 -d 0 -p ack -e 40 -c 1 -i 4 -a 1 -x {4.0 3.0 1 ------- null}
+ -t 0.481618461538462 -s 0 -d 3 -p ack -e 40 -c 1 -i 4 -a 1 -x {4.0 3.0 1 ------- null}
- -t 0.481618461538462 -s 0 -d 3 -p ack -e 40 -c 1 -i 4 -a 1 -x {4.0 3.0 1 ------- null}
h -t 0.481618461538462 -s 0 -d 3 -p ack -e 40 -c 1 -i 4 -a 1 -x {4.0 3.0 -1 ------- null}
r -t 0.488018461538462 -s 4 -d 0 -p ack -e 40 -c 1 -i 5 -a 1 -x {4.0 3.0 2 ------- null}
+ -t 0.488018461538462 -s 0 -d 3 -p ack -e 40 -c 1 -i 5 -a 1 -x {4.0 3.0 2 ------- null}
- -t 0.488018461538462 -s 0 -d 3 -p ack -e 40 -c 1 -i 5 -a 1 -x {4.0 3.0 2 ------- null}
h -t 0.488018461538462 -s 0 -d 3 -p ack -e 40 -c 1 -i 5 -a 1 -x {4.0 3.0 -1 ------- null}
r -t 0.491778461538462 -s 0 -d 3 -p ack -e 40 -c 1 -i 4 -a 1 -x {4.0 3.0 1 ------- null}
+ -t 0.491778461538462 -s 3 -d 0 -p tcp -e 1040 -c 1 -i 6 -a 1 -x {3.0 4.0 3 ------- null}
- -t 0.491778461538462 -s 3 -d 0 -p tcp -e 1040 -c 1 -i 6 -a 1 -x {3.0 4.0 3 ------- null}
h -t 0.491778461538462 -s 3 -d 0 -p tcp -e 1040 -c 1 -i 6 -a 1 -x {3.0 4.0 -1 ------- null}
+ -t 0.491778461538462 -s 3 -d 0 -p tcp -e 1040 -c 1 -i 7 -a 1 -x {3.0 4.0 4 ------- null}
- -t 0.495938461538462 -s 3 -d 0 -p tcp -e 1040 -c 1 -i 7 -a 1 -x {3.0 4.0 4 ------- null}
h -t 0.495938461538462 -s 3 -d 0 -p tcp -e 1040 -c 1 -i 7 -a 1 -x {3.0 4.0 -1 ------- null}
r -t 0.498178461538462 -s 0 -d 3 -p ack -e 40 -c 1 -i 5 -a 1 -x {4.0 3.0 2 ------- null}
+ -t 0.498178461538462 -s 3 -d 0 -p tcp -e 1040 -c 1 -i 8 -a 1 -x {3.0 4.0 5 ------- null}
+ -t 0.498178461538462 -s 3 -d 0 -p tcp -e 1040 -c 1 -i 9 -a 1 -x {3.0 4.0 6 ------- null}
- -t 0.500098461538462 -s 3 -d 0 -p tcp -e 1040 -c 1 -i 8 -a 1 -x {3.0 4.0 5 ------- null}
h -t 0.500098461538462 -s 3 -d 0 -p tcp -e 1040 -c 1 -i 8 -a 1 -x {3.0 4.0 -1 ------- null}
- -t 0.504258461538462 -s 3 -d 0 -p tcp -e 1040 -c 1 -i 9 -a 1 -x {3.0 4.0 6 ------- null}
h -t 0.504258461538462 -s 3 -d 0 -p tcp -e 1040 -c 1 -i 9 -a 1 -x {3.0 4.0 -1 ------- null}
r -t 0.505938461538462 -s 3 -d 0 -p tcp -e 1040 -c 1 -i 6 -a 1 -x {3.0 4.0 3 ------- null}
+ -t 0.505938461538462 -s 0 -d 4 -p tcp -e 1040 -c 1 -i 6 -a 1 -x {3.0 4.0 3 ------- null}
- -t 0.505938461538462 -s 0 -d 4 -p tcp -e 1040 -c 1 -i 6 -a 1 -x {3.0 4.0 3 ------- null}
h -t 0.505938461538462 -s 0 -d 4 -p tcp -e 1040 -c 1 -i 6 -a 1 -x {3.0 4.0 -1 ------- null}
r -t 0.510098461538462 -s 3 -d 0 -p tcp -e 1040 -c 1 -i 7 -a 1 -x {3.0 4.0 4 ------- null}
+ -t 0.510098461538462 -s 0 -d 4 -p tcp -e 1040 -c 1 -i 7 -a 1 -x {3.0 4.0 4 ------- null}
- -t 0.512338461538462 -s 0 -d 4 -p tcp -e 1040 -c 1 -i 7 -a 1 -x {3.0 4.0 4 ------- null}
h -t 0.512338461538462 -s 0 -d 4 -p tcp -e 1040 -c 1 -i 7 -a 1 -x {3.0 4.0 -1 ------- null}
r -t 0.514258461538462 -s 3 -d 0 -p tcp -e 1040 -c 1 -i 8 -a 1 -x {3.0 4.0 5 ------- null}
+ -t 0.514258461538462 -s 0 -d 4 -p tcp -e 1040 -c 1 -i 8 -a 1 -x {3.0 4.0 5 ------- null}
r -t 0.518418461538462 -s 3 -d 0 -p tcp -e 1040 -c 1 -i 9 -a 1 -x {3.0 4.0 6 ------- null}
+ -t 0.518418461538462 -s 0 -d 4 -p tcp -e 1040 -c 1 -i 9 -a 1 -x {3.0 4.0 6 ------- null}
- -t 0.518738461538461 -s 0 -d 4 -p tcp -e 1040 -c 1 -i 8 -a 1 -x {3.0 4.0 5 ------- null}
h -t 0.518738461538461 -s 0 -d 4 -p tcp -e 1040 -c 1 -i 8 -a 1 -x {3.0 4.0 -1 ------- null}
r -t 0.522338461538462 -s 0 -d 4 -p tcp -e 1040 -c 1 -i 6 -a 1 -x {3.0 4.0 3 ------- null}
+ -t 0.522338461538462 -s 4 -d 0 -p ack -e 40 -c 1 -i 10 -a 1 -x {4.0 3.0 3 ------- null}
- -t 0.522338461538462 -s 4 -d 0 -p ack -e 40 -c 1 -i 10 -a 1 -x {4.0 3.0 3 ------- null}
h -t 0.522338461538462 -s 4 -d 0 -p ack -e 40 -c 1 -i 10 -a 1 -x {4.0 3.0 -1 ------- null}
- -t 0.525138461538461 -s 0 -d 4 -p tcp -e 1040 -c 1 -i 9 -a 1 -x {3.0 4.0 6 ------- null}
h -t 0.525138461538461 -s 0 -d 4 -p tcp -e 1040 -c 1 -i 9 -a 1 -x {3.0 4.0 -1 ------- null}
r -t 0.528738461538461 -s 0 -d 4 -p tcp -e 1040 -c 1 -i 7 -a 1 -x {3.0 4.0 4 ------- null}
+ -t 0.528738461538461 -s 4 -d 0 -p ack -e 40 -c 1 -i 11 -a 1 -x {4.0 3.0 4 ------- null}
- -t 0.528738461538461 -s 4 -d 0 -p ack -e 40 -c 1 -i 11 -a 1 -x {4.0 3.0 4 ------- null}
h -t 0.528738461538461 -s 4 -d 0 -p ack -e 40 -c 1 -i 11 -a 1 -x {4.0 3.0 -1 ------- null}
r -t 0.532584615384615 -s 4 -d 0 -p ack -e 40 -c 1 -i 10 -a 1 -x {4.0 3.0 3 ------- null}
+ -t 0.532584615384615 -s 0 -d 3 -p ack -e 40 -c 1 -i 10 -a 1 -x {4.0 3.0 3 ------- null}
- -t 0.532584615384615 -s 0 -d 3 -p ack -e 40 -c 1 -i 10 -a 1 -x {4.0 3.0 3 ------- null}
h -t 0.532584615384615 -s 0 -d 3 -p ack -e 40 -c 1 -i 10 -a 1 -x {4.0 3.0 -1 ------- null}
r -t 0.535138461538461 -s 0 -d 4 -p tcp -e 1040 -c 1 -i 8 -a 1 -x {3.0 4.0 5 ------- null}
+ -t 0.535138461538461 -s 4 -d 0 -p ack -e 40 -c 1 -i 12 -a 1 -x {4.0 3.0 5 ------- null}
- -t 0.535138461538461 -s 4 -d 0 -p ack -e 40 -c 1 -i 12 -a 1 -x {4.0 3.0 5 ------- null}
h -t 0.535138461538461 -s 4 -d 0 -p ack -e 40 -c 1 -i 12 -a 1 -x {4.0 3.0 -1 ------- null}
r -t 0.538984615384615 -s 4 -d 0 -p ack -e 40 -c 1 -i 11 -a 1 -x {4.0 3.0 4 ------- null}
+ -t 0.538984615384615 -s 0 -d 3 -p ack -e 40 -c 1 -i 11 -a 1 -x {4.0 3.0 4 ------- null}
- -t 0.538984615384615 -s 0 -d 3 -p ack -e 40 -c 1 -i 11 -a 1 -x {4.0 3.0 4 ------- null}
h -t 0.538984615384615 -s 0 -d 3 -p ack -e 40 -c 1 -i 11 -a 1 -x {4.0 3.0 -1 ------- null}
r -t 0.541538461538461 -s 0 -d 4 -p tcp -e 1040 -c 1 -i 9 -a 1 -x {3.0 4.0 6 ------- null}
+ -t 0.541538461538461 -s 4 -d 0 -p ack -e 40 -c 1 -i 13 -a 1 -x {4.0 3.0 6 ------- null}
- -t 0.541538461538461 -s 4 -d 0 -p ack -e 40 -c 1 -i 13 -a 1 -x {4.0 3.0 6 ------- null}
h -t 0.541538461538461 -s 4 -d 0 -p ack -e 40 -c 1 -i 13 -a 1 -x {4.0 3.0 -1 ------- null}
r -t 0.542744615384615 -s 0 -d 3 -p ack -e 40 -c 1 -i 10 -a 1 -x {4.0 3.0 3 ------- null}
+ -t 0.542744615384615 -s 3 -d 0 -p tcp -e 1040 -c 1 -i 14 -a 1 -x {3.0 4.0 7 ------- null}
- -t 0.542744615384615 -s 3 -d 0 -p tcp -e 1040 -c 1 -i 14 -a 1 -x {3.0 4.0 7 ------- null}
h -t 0.542744615384615 -s 3 -d 0 -p tcp -e 1040 -c 1 -i 14 -a 1 -x {3.0 4.0 -1 ------- null}
+ -t 0.542744615384615 -s 3 -d 0 -p tcp -e 1040 -c 1 -i 15 -a 1 -x {3.0 4.0 8 ------- null}
r -t 0.545384615384615 -s 4 -d 0 -p ack -e 40 -c 1 -i 12 -a 1 -x {4.0 3.0 5 ------- null}
+ -t 0.545384615384615 -s 0 -d 3 -p ack -e 40 -c 1 -i 12 -a 1 -x {4.0 3.0 5 ------- null}
- -t 0.545384615384615 -s 0 -d 3 -p ack -e 40 -c 1 -i 12 -a 1 -x {4.0 3.0 5 ------- null}
h -t 0.545384615384615 -s 0 -d 3 -p ack -e 40 -c 1 -i 12 -a 1 -x {4.0 3.0 -1 ------- null}
- -t 0.546904615384615 -s 3 -d 0 -p tcp -e 1040 -c 1 -i 15 -a 1 -x {3.0 4.0 8 ------- null}
h -t 0.546904615384615 -s 3 -d 0 -p tcp -e 1040 -c 1 -i 15 -a 1 -x {3.0 4.0 -1 ------- null}
r -t 0.549144615384615 -s 0 -d 3 -p ack -e 40 -c 1 -i 11 -a 1 -x {4.0 3.0 4 ------- null}
+ -t 0.549144615384615 -s 3 -d 0 -p tcp -e 1040 -c 1 -i 16 -a 1 -x {3.0 4.0 9 ------- null}
+ -t 0.549144615384615 -s 3 -d 0 -p tcp -e 1040 -c 1 -i 17 -a 1 -x {3.0 4.0 10 ------- null}
- -t 0.551064615384615 -s 3 -d 0 -p tcp -e 1040 -c 1 -i 16 -a 1 -x {3.0 4.0 9 ------- null}
h -t 0.551064615384615 -s 3 -d 0 -p tcp -e 1040 -c 1 -i 16 -a 1 -x {3.0 4.0 -1 ------- null}
r -t 0.551784615384615 -s 4 -d 0 -p ack -e 40 -c 1 -i 13 -a 1 -x {4.0 3.0 6 ------- null}
+ -t 0.551784615384615 -s 0 -d 3 -p ack -e 40 -c 1 -i 13 -a 1 -x {4.0 3.0 6 ------- null}
- -t 0.551784615384615 -s 0 -d 3 -p ack -e 40 -c 1 -i 13 -a 1 -x {4.0 3.0 6 ------- null}
h -t 0.551784615384615 -s 0 -d 3 -p ack -e 40 -c 1 -i 13 -a 1 -x {4.0 3.0 -1 ------- null}
- -t 0.555224615384615 -s 3 -d 0 -p tcp -e 1040 -c 1 -i 17 -a 1 -x {3.0 4.0 10 ------- null}
h -t 0.555224615384615 -s 3 -d 0 -p tcp -e 1040 -c 1 -i 17 -a 1 -x {3.0 4.0 -1 ------- null}
r -t 0.555544615384615 -s 0 -d 3 -p ack -e 40 -c 1 -i 12 -a 1 -x {4.0 3.0 5 ------- null}
+ -t 0.555544615384615 -s 3 -d 0 -p tcp -e 1040 -c 1 -i 18 -a 1 -x {3.0 4.0 11 ------- null}
+ -t 0.555544615384615 -s 3 -d 0 -p tcp -e 1040 -c 1 -i 19 -a 1 -x {3.0 4.0 12 ------- null}
r -t 0.556904615384615 -s 3 -d 0 -p tcp -e 1040 -c 1 -i 14 -a 1 -x {3.0 4.0 7 ------- null}
+ -t 0.556904615384615 -s 0 -d 4 -p tcp -e 1040 -c 1 -i 14 -a 1 -x {3.0 4.0 7 ------- null}
- -t 0.556904615384615 -s 0 -d 4 -p tcp -e 1040 -c 1 -i 14 -a 1 -x {3.0 4.0 7 ------- null}
h -t 0.556904615384615 -s 0 -d 4 -p tcp -e 1040 -c 1 -i 14 -a 1 -x {3.0 4.0 -1 ------- null}
- -t 0.559384615384615 -s 3 -d 0 -p tcp -e 1040 -c 1 -i 18 -a 1 -x {3.0 4.0 11 ------- null}
h -t 0.559384615384615 -s 3 -d 0 -p tcp -e 1040 -c 1 -i 18 -a 1 -x {3.0 4.0 -1 ------- null}
r -t 0.561064615384615 -s 3 -d 0 -p tcp -e 1040 -c 1 -i 15 -a 1 -x {3.0 4.0 8 ------- null}
+ -t 0.561064615384615 -s 0 -d 4 -p tcp -e 1040 -c 1 -i 15 -a 1 -x {3.0 4.0 8 ------- null}
r -t 0.561944615384615 -s 0 -d 3 -p ack -e 40 -c 1 -i 13 -a 1 -x {4.0 3.0 6 ------- null}
+ -t 0.561944615384615 -s 3 -d 0 -p tcp -e 1040 -c 1 -i 20 -a 1 -x {3.0 4.0 13 ------- null}
+ -t 0.561944615384615 -s 3 -d 0 -p tcp -e 1040 -c 1 -i 21 -a 1 -x {3.0 4.0 14 ------- null}
- -t 0.563304615384615 -s 0 -d 4 -p tcp -e 1040 -c 1 -i 15 -a 1 -x {3.0 4.0 8 ------- null}
h -t 0.563304615384615 -s 0 -d 4 -p tcp -e 1040 -c 1 -i 15 -a 1 -x {3.0 4.0 -1 ------- null}
- -t 0.563544615384616 -s 3 -d 0 -p tcp -e 1040 -c 1 -i 19 -a 1 -x {3.0 4.0 12 ------- null}
h -t 0.563544615384616 -s 3 -d 0 -p tcp -e 1040 -c 1 -i 19 -a 1 -x {3.0 4.0 -1 ------- null}
r -t 0.565224615384615 -s 3 -d 0 -p tcp -e 1040 -c 1 -i 16 -a 1 -x {3.0 4.0 9 ------- null}
+ -t 0.565224615384615 -s 0 -d 4 -p tcp -e 1040 -c 1 -i 16 -a 1 -x {3.0 4.0 9 ------- null}
- -t 0.567704615384616 -s 3 -d 0 -p tcp -e 1040 -c 1 -i 20 -a 1 -x {3.0 4.0 13 ------- null}
h -t 0.567704615384616 -s 3 -d 0 -p tcp -e 1040 -c 1 -i 20 -a 1 -x {3.0 4.0 -1 ------- null}
r -t 0.569384615384615 -s 3 -d 0 -p tcp -e 1040 -c 1 -i 17 -a 1 -x {3.0 4.0 10 ------- null}
+ -t 0.569384615384615 -s 0 -d 4 -p tcp -e 1040 -c 1 -i 17 -a 1 -x {3.0 4.0 10 ------- null}
- -t 0.569704615384615 -s 0 -d 4 -p tcp -e 1040 -c 1 -i 16 -a 1 -x {3.0 4.0 9 ------- null}
h -t 0.569704615384615 -s 0 -d 4 -p tcp -e 1040 -c 1 -i 16 -a 1 -x {3.0 4.0 -1 ------- null}
- -t 0.571864615384616 -s 3 -d 0 -p tcp -e 1040 -c 1 -i 21 -a 1 -x {3.0 4.0 14 ------- null}
h -t 0.571864615384616 -s 3 -d 0 -p tcp -e 1040 -c 1 -i 21 -a 1 -x {3.0 4.0 -1 ------- null}
r -t 0.573304615384615 -s 0 -d 4 -p tcp -e 1040 -c 1 -i 14 -a 1 -x {3.0 4.0 7 ------- null}
+ -t 0.573304615384615 -s 4 -d 0 -p ack -e 40 -c 1 -i 22 -a 1 -x {4.0 3.0 7 ------- null}
- -t 0.573304615384615 -s 4 -d 0 -p ack -e 40 -c 1 -i 22 -a 1 -x {4.0 3.0 7 ------- null}
h -t 0.573304615384615 -s 4 -d 0 -p ack -e 40 -c 1 -i 22 -a 1 -x {4.0 3.0 -1 ------- null}
r -t 0.573544615384615 -s 3 -d 0 -p tcp -e 1040 -c 1 -i 18 -a 1 -x {3.0 4.0 11 ------- null}
+ -t 0.573544615384615 -s 0 -d 4 -p tcp -e 1040 -c 1 -i 18 -a 1 -x {3.0 4.0 11 ------- null}
- -t 0.576104615384615 -s 0 -d 4 -p tcp -e 1040 -c 1 -i 17 -a 1 -x {3.0 4.0 10 ------- null}
h -t 0.576104615384615 -s 0 -d 4 -p tcp -e 1040 -c 1 -i 17 -a 1 -x {3.0 4.0 -1 ------- null}
r -t 0.577704615384615 -s 3 -d 0 -p tcp -e 1040 -c 1 -i 19 -a 1 -x {3.0 4.0 12 ------- null}
+ -t 0.577704615384615 -s 0 -d 4 -p tcp -e 1040 -c 1 -i 19 -a 1 -x {3.0 4.0 12 ------- null}
r -t 0.579704615384615 -s 0 -d 4 -p tcp -e 1040 -c 1 -i 15 -a 1 -x {3.0 4.0 8 ------- null}
+ -t 0.579704615384615 -s 4 -d 0 -p ack -e 40 -c 1 -i 23 -a 1 -x {4.0 3.0 8 ------- null}
- -t 0.579704615384615 -s 4 -d 0 -p ack -e 40 -c 1 -i 23 -a 1 -x {4.0 3.0 8 ------- null}
h -t 0.579704615384615 -s 4 -d 0 -p ack -e 40 -c 1 -i 23 -a 1 -x {4.0 3.0 -1 ------- null}
r -t 0.581864615384616 -s 3 -d 0 -p tcp -e 1040 -c 1 -i 20 -a 1 -x {3.0 4.0 13 ------- null}
+ -t 0.581864615384616 -s 0 -d 4 -p tcp -e 1040 -c 1 -i 20 -a 1 -x {3.0 4.0 13 ------- null}
- -t 0.582504615384615 -s 0 -d 4 -p tcp -e 1040 -c 1 -i 18 -a 1 -x {3.0 4.0 11 ------- null}
h -t 0.582504615384615 -s 0 -d 4 -p tcp -e 1040 -c 1 -i 18 -a 1 -x {3.0 4.0 -1 ------- null}
r -t 0.583550769230769 -s 4 -d 0 -p ack -e 40 -c 1 -i 22 -a 1 -x {4.0 3.0 7 ------- null}
+ -t 0.583550769230769 -s 0 -d 3 -p ack -e 40 -c 1 -i 22 -a 1 -x {4.0 3.0 7 ------- null}
- -t 0.583550769230769 -s 0 -d 3 -p ack -e 40 -c 1 -i 22 -a 1 -x {4.0 3.0 7 ------- null}
h -t 0.583550769230769 -s 0 -d 3 -p ack -e 40 -c 1 -i 22 -a 1 -x {4.0 3.0 -1 ------- null}
r -t 0.586024615384616 -s 3 -d 0 -p tcp -e 1040 -c 1 -i 21 -a 1 -x {3.0 4.0 14 ------- null}
+ -t 0.586024615384616 -s 0 -d 4 -p tcp -e 1040 -c 1 -i 21 -a 1 -x {3.0 4.0 14 ------- null}
r -t 0.586104615384615 -s 0 -d 4 -p tcp -e 1040 -c 1 -i 16 -a 1 -x {3.0 4.0 9 ------- null}
+ -t 0.586104615384615 -s 4 -d 0 -p ack -e 40 -c 1 -i 24 -a 1 -x {4.0 3.0 9 ------- null}
- -t 0.586104615384615 -s 4 -d 0 -p ack -e 40 -c 1 -i 24 -a 1 -x {4.0 3.0 9 ------- null}
h -t 0.586104615384615 -s 4 -d 0 -p ack -e 40 -c 1 -i 24 -a 1 -x {4.0 3.0 -1 ------- null}
- -t 0.588904615384615 -s 0 -d 4 -p tcp -e 1040 -c 1 -i 19 -a 1 -x {3.0 4.0 12 ------- null}
h -t 0.588904615384615 -s 0 -d 4 -p tcp -e 1040 -c 1 -i 19 -a 1 -x {3.0 4.0 -1 ------- null}
r -t 0.589950769230769 -s 4 -d 0 -p ack -e 40 -c 1 -i 23 -a 1 -x {4.0 3.0 8 ------- null}
+ -t 0.589950769230769 -s 0 -d 3 -p ack -e 40 -c 1 -i 23 -a 1 -x {4.0 3.0 8 ------- null}
- -t 0.589950769230769 -s 0 -d 3 -p ack -e 40 -c 1 -i 23 -a 1 -x {4.0 3.0 8 ------- null}
h -t 0.589950769230769 -s 0 -d 3 -p ack -e 40 -c 1 -i 23 -a 1 -x {4.0 3.0 -1 ------- null}
r -t 0.592504615384615 -s 0 -d 4 -p tcp -e 1040 -c 1 -i 17 -a 1 -x {3.0 4.0 10 ------- null}
+ -t 0.592504615384615 -s 4 -d 0 -p ack -e 40 -c 1 -i 25 -a 1 -x {4.0 3.0 10 ------- null}
- -t 0.592504615384615 -s 4 -d 0 -p ack -e 40 -c 1 -i 25 -a 1 -x {4.0 3.0 10 ------- null}
h -t 0.592504615384615 -s 4 -d 0 -p ack -e 40 -c 1 -i 25 -a 1 -x {4.0 3.0 -1 ------- null}
r -t 0.593710769230769 -s 0 -d 3 -p ack -e 40 -c 1 -i 22 -a 1 -x {4.0 3.0 7 ------- null}
+ -t 0.593710769230769 -s 3 -d 0 -p tcp -e 1040 -c 1 -i 26 -a 1 -x {3.0 4.0 15 ------- null}
- -t 0.593710769230769 -s 3 -d 0 -p tcp -e 1040 -c 1 -i 26 -a 1 -x {3.0 4.0 15 ------- null}
h -t 0.593710769230769 -s 3 -d 0 -p tcp -e 1040 -c 1 -i 26 -a 1 -x {3.0 4.0 -1 ------- null}
+ -t 0.593710769230769 -s 3 -d 0 -p tcp -e 1040 -c 1 -i 27 -a 1 -x {3.0 4.0 16 ------- null}
- -t 0.595304615384615 -s 0 -d 4 -p tcp -e 1040 -c 1 -i 20 -a 1 -x {3.0 4.0 13 ------- null}
h -t 0.595304615384615 -s 0 -d 4 -p tcp -e 1040 -c 1 -i 20 -a 1 -x {3.0 4.0 -1 ------- null}
r -t 0.596350769230769 -s 4 -d 0 -p ack -e 40 -c 1 -i 24 -a 1 -x {4.0 3.0 9 ------- null}
+ -t 0.596350769230769 -s 0 -d 3 -p ack -e 40 -c 1 -i 24 -a 1 -x {4.0 3.0 9 ------- null}
- -t 0.596350769230769 -s 0 -d 3 -p ack -e 40 -c 1 -i 24 -a 1 -x {4.0 3.0 9 ------- null}
h -t 0.596350769230769 -s 0 -d 3 -p ack -e 40 -c 1 -i 24 -a 1 -x {4.0 3.0 -1 ------- null}
- -t 0.597870769230769 -s 3 -d 0 -p tcp -e 1040 -c 1 -i 27 -a 1 -x {3.0 4.0 16 ------- null}
h -t 0.597870769230769 -s 3 -d 0 -p tcp -e 1040 -c 1 -i 27 -a 1 -x {3.0 4.0 -1 ------- null}
r -t 0.598904615384615 -s 0 -d 4 -p tcp -e 1040 -c 1 -i 18 -a 1 -x {3.0 4.0 11 ------- null}
+ -t 0.598904615384615 -s 4 -d 0 -p ack -e 40 -c 1 -i 28 -a 1 -x {4.0 3.0 11 ------- null}
- -t 0.598904615384615 -s 4 -d 0 -p ack -e 40 -c 1 -i 28 -a 1 -x {4.0 3.0 11 ------- null}
h -t 0.598904615384615 -s 4 -d 0 -p ack -e 40 -c 1 -i 28 -a 1 -x {4.0 3.0 -1 ------- null}
r -t 0.600110769230769 -s 0 -d 3 -p ack -e 40 -c 1 -i 23 -a 1 -x {4.0 3.0 8 ------- null}
+ -t 0.600110769230769 -s 3 -d 0 -p tcp -e 1040 -c 1 -i 29 -a 1 -x {3.0 4.0 17 ------- null}
+ -t 0.600110769230769 -s 3 -d 0 -p tcp -e 1040 -c 1 -i 30 -a 1 -x {3.0 4.0 18 ------- null}
- -t 0.601704615384615 -s 0 -d 4 -p tcp -e 1040 -c 1 -i 21 -a 1 -x {3.0 4.0 14 ------- null}
h -t 0.601704615384615 -s 0 -d 4 -p tcp -e 1040 -c 1 -i 21 -a 1 -x {3.0 4.0 -1 ------- null}
- -t 0.602030769230769 -s 3 -d 0 -p tcp -e 1040 -c 1 -i 29 -a 1 -x {3.0 4.0 17 ------- null}
h -t 0.602030769230769 -s 3 -d 0 -p tcp -e 1040 -c 1 -i 29 -a 1 -x {3.0 4.0 -1 ------- null}
r -t 0.602750769230769 -s 4 -d 0 -p ack -e 40 -c 1 -i 25 -a 1 -x {4.0 3.0 10 ------- null}
+ -t 0.602750769230769 -s 0 -d 3 -p ack -e 40 -c 1 -i 25 -a 1 -x {4.0 3.0 10 ------- null}
- -t 0.602750769230769 -s 0 -d 3 -p ack -e 40 -c 1 -i 25 -a 1 -x {4.0 3.0 10 ------- null}
h -t 0.602750769230769 -s 0 -d 3 -p ack -e 40 -c 1 -i 25 -a 1 -x {4.0 3.0 -1 ------- null}
r -t 0.605304615384615 -s 0 -d 4 -p tcp -e 1040 -c 1 -i 19 -a 1 -x {3.0 4.0 12 ------- null}
+ -t 0.605304615384615 -s 4 -d 0 -p ack -e 40 -c 1 -i 31 -a 1 -x {4.0 3.0 12 ------- null}
- -t 0.605304615384615 -s 4 -d 0 -p ack -e 40 -c 1 -i 31 -a 1 -x {4.0 3.0 12 ------- null}
h -t 0.605304615384615 -s 4 -d 0 -p ack -e 40 -c 1 -i 31 -a 1 -x {4.0 3.0 -1 ------- null}
- -t 0.606190769230769 -s 3 -d 0 -p tcp -e 1040 -c 1 -i 30 -a 1 -x {3.0 4.0 18 ------- null}
h -t 0.606190769230769 -s 3 -d 0 -p tcp -e 1040 -c 1 -i 30 -a 1 -x {3.0 4.0 -1 ------- null}
r -t 0.606510769230769 -s 0 -d 3 -p ack -e 40 -c 1 -i 24 -a 1 -x {4.0 3.0 9 ------- null}
+ -t 0.606510769230769 -s 3 -d 0 -p tcp -e 1040 -c 1 -i 32 -a 1 -x {3.0 4.0 19 ------- null}
+ -t 0.606510769230769 -s 3 -d 0 -p tcp -e 1040 -c 1 -i 33 -a 1 -x {3.0 4.0 20 ------- null}
r -t 0.607870769230769 -s 3 -d 0 -p tcp -e 1040 -c 1 -i 26 -a 1 -x {3.0 4.0 15 ------- null}
+ -t 0.607870769230769 -s 0 -d 4 -p tcp -e 1040 -c 1 -i 26 -a 1 -x {3.0 4.0 15 ------- null}
- -t 0.608104615384615 -s 0 -d 4 -p tcp -e 1040 -c 1 -i 26 -a 1 -x {3.0 4.0 15 ------- null}
h -t 0.608104615384615 -s 0 -d 4 -p tcp -e 1040 -c 1 -i 26 -a 1 -x {3.0 4.0 -1 ------- null}
r -t 0.609150769230769 -s 4 -d 0 -p ack -e 40 -c 1 -i 28 -a 1 -x {4.0 3.0 11 ------- null}
+ -t 0.609150769230769 -s 0 -d 3 -p ack -e 40 -c 1 -i 28 -a 1 -x {4.0 3.0 11 ------- null}
- -t 0.609150769230769 -s 0 -d 3 -p ack -e 40 -c 1 -i 28 -a 1 -x {4.0 3.0 11 ------- null}
h -t 0.609150769230769 -s 0 -d 3 -p ack -e 40 -c 1 -i 28 -a 1 -x {4.0 3.0 -1 ------- null}
- -t 0.610350769230769 -s 3 -d 0 -p tcp -e 1040 -c 1 -i 32 -a 1 -x {3.0 4.0 19 ------- null}
h -t 0.610350769230769 -s 3 -d 0 -p tcp -e 1040 -c 1 -i 32 -a 1 -x {3.0 4.0 -1 ------- null}
r -t 0.611704615384615 -s 0 -d 4 -p tcp -e 1040 -c 1 -i 20 -a 1 -x {3.0 4.0 13 ------- null}
+ -t 0.611704615384615 -s 4 -d 0 -p ack -e 40 -c 1 -i 34 -a 1 -x {4.0 3.0 13 ------- null}
- -t 0.611704615384615 -s 4 -d 0 -p ack -e 40 -c 1 -i 34 -a 1 -x {4.0 3.0 13 ------- null}
h -t 0.611704615384615 -s 4 -d 0 -p ack -e 40 -c 1 -i 34 -a 1 -x {4.0 3.0 -1 ------- null}
r -t 0.612030769230769 -s 3 -d 0 -p tcp -e 1040 -c 1 -i 27 -a 1 -x {3.0 4.0 16 ------- null}
+ -t 0.612030769230769 -s 0 -d 4 -p tcp -e 1040 -c 1 -i 27 -a 1 -x {3.0 4.0 16 ------- null}
r -t 0.612910769230769 -s 0 -d 3 -p ack -e 40 -c 1 -i 25 -a 1 -x {4.0 3.0 10 ------- null}
+ -t 0.612910769230769 -s 3 -d 0 -p tcp -e 1040 -c 1 -i 35 -a 1 -x {3.0 4.0 21 ------- null}
+ -t 0.612910769230769 -s 3 -d 0 -p tcp -e 1040 -c 1 -i 36 -a 1 -x {3.0 4.0 22 ------- null}
- -t 0.614504615384615 -s 0 -d 4 -p tcp -e 1040 -c 1 -i 27 -a 1 -x {3.0 4.0 16 ------- null}
h -t 0.614504615384615 -s 0 -d 4 -p tcp -e 1040 -c 1 -i 27 -a 1 -x {3.0 4.0 -1 ------- null}
- -t 0.614510769230769 -s 3 -d 0 -p tcp -e 1040 -c 1 -i 33 -a 1 -x {3.0 4.0 20 ------- null}
h -t 0.614510769230769 -s 3 -d 0 -p tcp -e 1040 -c 1 -i 33 -a 1 -x {3.0 4.0 -1 ------- null}
r -t 0.615550769230769 -s 4 -d 0 -p ack -e 40 -c 1 -i 31 -a 1 -x {4.0 3.0 12 ------- null}
+ -t 0.615550769230769 -s 0 -d 3 -p ack -e 40 -c 1 -i 31 -a 1 -x {4.0 3.0 12 ------- null}
- -t 0.615550769230769 -s 0 -d 3 -p ack -e 40 -c 1 -i 31 -a 1 -x {4.0 3.0 12 ------- null}
h -t 0.615550769230769 -s 0 -d 3 -p ack -e 40 -c 1 -i 31 -a 1 -x {4.0 3.0 -1 ------- null}
r -t 0.616190769230769 -s 3 -d 0 -p tcp -e 1040 -c 1 -i 29 -a 1 -x {3.0 4.0 17 ------- null}
+ -t 0.616190769230769 -s 0 -d 4 -p tcp -e 1040 -c 1 -i 29 -a 1 -x {3.0 4.0 17 ------- null}
r -t 0.618104615384615 -s 0 -d 4 -p tcp -e 1040 -c 1 -i 21 -a 1 -x {3.0 4.0 14 ------- null}
+ -t 0.618104615384615 -s 4 -d 0 -p ack -e 40 -c 1 -i 37 -a 1 -x {4.0 3.0 14 ------- null}
- -t 0.618104615384615 -s 4 -d 0 -p ack -e 40 -c 1 -i 37 -a 1 -x {4.0 3.0 14 ------- null}
h -t 0.618104615384615 -s 4 -d 0 -p ack -e 40 -c 1 -i 37 -a 1 -x {4.0 3.0 -1 ------- null}
- -t 0.618670769230769 -s 3 -d 0 -p tcp -e 1040 -c 1 -i 35 -a 1 -x {3.0 4.0 21 ------- null}
h -t 0.618670769230769 -s 3 -d 0 -p tcp -e 1040 -c 1 -i 35 -a 1 -x {3.0 4.0 -1 ------- null}
r -t 0.619310769230769 -s 0 -d 3 -p ack -e 40 -c 1 -i 28 -a 1 -x {4.0 3.0 11 ------- null}
+ -t 0.619310769230769 -s 3 -d 0 -p tcp -e 1040 -c 1 -i 38 -a 1 -x {3.0 4.0 23 ------- null}
+ -t 0.619310769230769 -s 3 -d 0 -p tcp -e 1040 -c 1 -i 39 -a 1 -x {3.0 4.0 24 ------- null}
r -t 0.620350769230769 -s 3 -d 0 -p tcp -e 1040 -c 1 -i 30 -a 1 -x {3.0 4.0 18 ------- null}
+ -t 0.620350769230769 -s 0 -d 4 -p tcp -e 1040 -c 1 -i 30 -a 1 -x {3.0 4.0 18 ------- null}
- -t 0.620904615384615 -s 0 -d 4 -p tcp -e 1040 -c 1 -i 29 -a 1 -x {3.0 4.0 17 ------- null}
h -t 0.620904615384615 -s 0 -d 4 -p tcp -e 1040 -c 1 -i 29 -a 1 -x {3.0 4.0 -1 ------- null}
r -t 0.621950769230769 -s 4 -d 0 -p ack -e 40 -c 1 -i 34 -a 1 -x {4.0 3.0 13 ------- null}
+ -t 0.621950769230769 -s 0 -d 3 -p ack -e 40 -c 1 -i 34 -a 1 -x {4.0 3.0 13 ------- null}
- -t 0.621950769230769 -s 0 -d 3 -p ack -e 40 -c 1 -i 34 -a 1 -x {4.0 3.0 13 ------- null}
h -t 0.621950769230769 -s 0 -d 3 -p ack -e 40 -c 1 -i 34 -a 1 -x {4.0 3.0 -1 ------- null}
- -t 0.622830769230769 -s 3 -d 0 -p tcp -e 1040 -c 1 -i 36 -a 1 -x {3.0 4.0 22 ------- null}
h -t 0.622830769230769 -s 3 -d 0 -p tcp -e 1040 -c 1 -i 36 -a 1 -x {3.0 4.0 -1 ------- null}
r -t 0.624504615384615 -s 0 -d 4 -p tcp -e 1040 -c 1 -i 26 -a 1 -x {3.0 4.0 15 ------- null}
+ -t 0.624504615384615 -s 4 -d 0 -p ack -e 40 -c 1 -i 40 -a 1 -x {4.0 3.0 15 ------- null}
- -t 0.624504615384615 -s 4 -d 0 -p ack -e 40 -c 1 -i 40 -a 1 -x {4.0 3.0 15 ------- null}
h -t 0.624504615384615 -s 4 -d 0 -p ack -e 40 -c 1 -i 40 -a 1 -x {4.0 3.0 -1 ------- null}
r -t 0.624510769230769 -s 3 -d 0 -p tcp -e 1040 -c 1 -i 32 -a 1 -x {3.0 4.0 19 ------- null}
+ -t 0.624510769230769 -s 0 -d 4 -p tcp -e 1040 -c 1 -i 32 -a 1 -x {3.0 4.0 19 ------- null}
r -t 0.625710769230769 -s 0 -d 3 -p ack -e 40 -c 1 -i 31 -a 1 -x {4.0 3.0 12 ------- null}
+ -t 0.625710769230769 -s 3 -d 0 -p tcp -e 1040 -c 1 -i 41 -a 1 -x {3.0 4.0 25 ------- null}
+ -t 0.625710769230769 -s 3 -d 0 -p tcp -e 1040 -c 1 -i 42 -a 1 -x {3.0 4.0 26 ------- null}
- -t 0.626990769230769 -s 3 -d 0 -p tcp -e 1040 -c 1 -i 38 -a 1 -x {3.0 4.0 23 ------- null}
h -t 0.626990769230769 -s 3 -d 0 -p tcp -e 1040 -c 1 -i 38 -a 1 -x {3.0 4.0 -1 ------- null}
- -t 0.627304615384615 -s 0 -d 4 -p tcp -e 1040 -c 1 -i 30 -a 1 -x {3.0 4.0 18 ------- null}
h -t 0.627304615384615 -s 0 -d 4 -p tcp -e 1040 -c 1 -i 30 -a 1 -x {3.0 4.0 -1 ------- null}
r -t 0.628350769230769 -s 4 -d 0 -p ack -e 40 -c 1 -i 37 -a 1 -x {4.0 3.0 14 ------- null}
+ -t 0.628350769230769 -s 0 -d 3 -p ack -e 40 -c 1 -i 37 -a 1 -x {4.0 3.0 14 ------- null}
- -t 0.628350769230769 -s 0 -d 3 -p ack -e 40 -c 1 -i 37 -a 1 -x {4.0 3.0 14 ------- null}
h -t 0.628350769230769 -s 0 -d 3 -p ack -e 40 -c 1 -i 37 -a 1 -x {4.0 3.0 -1 ------- null}
r -t 0.628670769230769 -s 3 -d 0 -p tcp -e 1040 -c 1 -i 33 -a 1 -x {3.0 4.0 20 ------- null}
+ -t 0.628670769230769 -s 0 -d 4 -p tcp -e 1040 -c 1 -i 33 -a 1 -x {3.0 4.0 20 ------- null}
r -t 0.630904615384615 -s 0 -d 4 -p tcp -e 1040 -c 1 -i 27 -a 1 -x {3.0 4.0 16 ------- null}
+ -t 0.630904615384615 -s 4 -d 0 -p ack -e 40 -c 1 -i 43 -a 1 -x {4.0 3.0 16 ------- null}
- -t 0.630904615384615 -s 4 -d 0 -p ack -e 40 -c 1 -i 43 -a 1 -x {4.0 3.0 16 ------- null}
h -t 0.630904615384615 -s 4 -d 0 -p ack -e 40 -c 1 -i 43 -a 1 -x {4.0 3.0 -1 ------- null}
- -t 0.631150769230769 -s 3 -d 0 -p tcp -e 1040 -c 1 -i 39 -a 1 -x {3.0 4.0 24 ------- null}
h -t 0.631150769230769 -s 3 -d 0 -p tcp -e 1040 -c 1 -i 39 -a 1 -x {3.0 4.0 -1 ------- null}
r -t 0.632110769230769 -s 0 -d 3 -p ack -e 40 -c 1 -i 34 -a 1 -x {4.0 3.0 13 ------- null}
+ -t 0.632110769230769 -s 3 -d 0 -p tcp -e 1040 -c 1 -i 44 -a 1 -x {3.0 4.0 27 ------- null}
+ -t 0.632110769230769 -s 3 -d 0 -p tcp -e 1040 -c 1 -i 45 -a 1 -x {3.0 4.0 28 ------- null}
r -t 0.632830769230769 -s 3 -d 0 -p tcp -e 1040 -c 1 -i 35 -a 1 -x {3.0 4.0 21 ------- null}
+ -t 0.632830769230769 -s 0 -d 4 -p tcp -e 1040 -c 1 -i 35 -a 1 -x {3.0 4.0 21 ------- null}
- -t 0.633704615384615 -s 0 -d 4 -p tcp -e 1040 -c 1 -i 32 -a 1 -x {3.0 4.0 19 ------- null}
h -t 0.633704615384615 -s 0 -d 4 -p tcp -e 1040 -c 1 -i 32 -a 1 -x {3.0 4.0 -1 ------- null}
r -t 0.634750769230769 -s 4 -d 0 -p ack -e 40 -c 1 -i 40 -a 1 -x {4.0 3.0 15 ------- null}
+ -t 0.634750769230769 -s 0 -d 3 -p ack -e 40 -c 1 -i 40 -a 1 -x {4.0 3.0 15 ------- null}
- -t 0.634750769230769 -s 0 -d 3 -p ack -e 40 -c 1 -i 40 -a 1 -x {4.0 3.0 15 ------- null}
h -t 0.634750769230769 -s 0 -d 3 -p ack -e 40 -c 1 -i 40 -a 1 -x {4.0 3.0 -1 ------- null}
- -t 0.635310769230769 -s 3 -d 0 -p tcp -e 1040 -c 1 -i 41 -a 1 -x {3.0 4.0 25 ------- null}
h -t 0.635310769230769 -s 3 -d 0 -p tcp -e 1040 -c 1 -i 41 -a 1 -x {3.0 4.0 -1 ------- null}
r -t 0.636990769230769 -s 3 -d 0 -p tcp -e 1040 -c 1 -i 36 -a 1 -x {3.0 4.0 22 ------- null}
+ -t 0.636990769230769 -s 0 -d 4 -p tcp -e 1040 -c 1 -i 36 -a 1 -x {3.0 4.0 22 ------- null}
r -t 0.637304615384615 -s 0 -d 4 -p tcp -e 1040 -c 1 -i 29 -a 1 -x {3.0 4.0 17 ------- null}
+ -t 0.637304615384615 -s 4 -d 0 -p ack -e 40 -c 1 -i 46 -a 1 -x {4.0 3.0 17 ------- null}
- -t 0.637304615384615 -s 4 -d 0 -p ack -e 40 -c 1 -i 46 -a 1 -x {4.0 3.0 17 ------- null}
h -t 0.637304615384615 -s 4 -d 0 -p ack -e 40 -c 1 -i 46 -a 1 -x {4.0 3.0 -1 ------- null}
r -t 0.638510769230769 -s 0 -d 3 -p ack -e 40 -c 1 -i 37 -a 1 -x {4.0 3.0 14 ------- null}