+ 0.4 3 0 tcp 40 ------- 1 3.0 4.0 0 0
- 0.4 3 0 tcp 40 ------- 1 3.0 4.0 0 0
r 0.41016 3 0 tcp 40 ------- 1 3.0 4.0 0 0
+ 0.41016 0 4 tcp 40 ------- 1 3.0 4.0 0 0
- 0.41016 0 4 tcp 40 ------- 1 3.0 4.0 0 0
r 0.420406 0 4 tcp 40 ------- 1 3.0 4.0 0 0
+ 0.420406 4 0 ack 40 ------- 1 4.0 3.0 0 1
- 0.420406 4 0 ack 40 ------- 1 4.0 3.0 0 1
r 0.430652 4 0 ack 40 ------- 1 4.0 3.0 0 1
+ 0.430652 0 3 ack 40 ------- 1 4.0 3.0 0 1
- 0.430652 0 3 ack 40 ------- 1 4.0 3.0 0 1
r 0.440812 0 3 ack 40 ------- 1 4.0 3.0 0 1
+ 0.440812 3 0 tcp 1040 ------- 1 3.0 4.0 1 2
- 0.440812 3 0 tcp 1040 ------- 1 3.0 4.0 1 2
+ 0.440812 3 0 tcp 1040 ------- 1 3.0 4.0 2 3
- 0.444972 3 0 tcp 1040 ------- 1 3.0 4.0 2 3
r 0.454972 3 0 tcp 1040 ------- 1 3.0 4.0 1 2
+ 0.454972 0 4 tcp 1040 ------- 1 3.0 4.0 1 2
- 0.454972 0 4 tcp 1040 ------- 1 3.0 4.0 1 2
r 0.459132 3 0 tcp 1040 ------- 1 3.0 4.0 2 3
+ 0.459132 0 4 tcp 1040 ------- 1 3.0 4.0 2 3
- 0.461372 0 4 tcp 1040 ------- 1 3.0 4.0 2 3
r 0.471372 0 4 tcp 1040 ------- 1 3.0 4.0 1 2
+ 0.471372 4 0 ack 40 ------- 1 4.0 3.0 1 4
- 0.471372 4 0 ack 40 ------- 1 4.0 3.0 1 4
r 0.477772 0 4 tcp 1040 ------- 1 3.0 4.0 2 3
+ 0.477772 4 0 ack 40 ------- 1 4.0 3.0 2 5
- 0.477772 4 0 ack 40 ------- 1 4.0 3.0 2 5
r 0.481618 4 0 ack 40 ------- 1 4.0 3.0 1 4
+ 0.481618 0 3 ack 40 ------- 1 4.0 3.0 1 4
- 0.481618 0 3 ack 40 ------- 1 4.0 3.0 1 4
r 0.488018 4 0 ack 40 ------- 1 4.0 3.0 2 5
+ 0.488018 0 3 ack 40 ------- 1 4.0 3.0 2 5
- 0.488018 0 3 ack 40 ------- 1 4.0 3.0 2 5
r 0.491778 0 3 ack 40 ------- 1 4.0 3.0 1 4
+ 0.491778 3 0 tcp 1040 ------- 1 3.0 4.0 3 6
- 0.491778 3 0 tcp 1040 ------- 1 3.0 4.0 3 6
+ 0.491778 3 0 tcp 1040 ------- 1 3.0 4.0 4 7
- 0.495938 3 0 tcp 1040 ------- 1 3.0 4.0 4 7
r 0.498178 0 3 ack 40 ------- 1 4.0 3.0 2 5
+ 0.498178 3 0 tcp 1040 ------- 1 3.0 4.0 5 8
+ 0.498178 3 0 tcp 1040 ------- 1 3.0 4.0 6 9
- 0.500098 3 0 tcp 1040 ------- 1 3.0 4.0 5 8
- 0.504258 3 0 tcp 1040 ------- 1 3.0 4.0 6 9
r 0.505938 3 0 tcp 1040 ------- 1 3.0 4.0 3 6
+ 0.505938 0 4 tcp 1040 ------- 1 3.0 4.0 3 6
- 0.505938 0 4 tcp 1040 ------- 1 3.0 4.0 3 6
r 0.510098 3 0 tcp 1040 ------- 1 3.0 4.0 4 7
+ 0.510098 0 4 tcp 1040 ------- 1 3.0 4.0 4 7
- 0.512338 0 4 tcp 1040 ------- 1 3.0 4.0 4 7
r 0.514258 3 0 tcp 1040 ------- 1 3.0 4.0 5 8
+ 0.514258 0 4 tcp 1040 ------- 1 3.0 4.0 5 8
r 0.518418 3 0 tcp 1040 ------- 1 3.0 4.0 6 9
+ 0.518418 0 4 tcp 1040 ------- 1 3.0 4.0 6 9
- 0.518738 0 4 tcp 1040 ------- 1 3.0 4.0 5 8
r 0.522338 0 4 tcp 1040 ------- 1 3.0 4.0 3 6
+ 0.522338 4 0 ack 40 ------- 1 4.0 3.0 3 10
- 0.522338 4 0 ack 40 ------- 1 4.0 3.0 3 10
- 0.525138 0 4 tcp 1040 ------- 1 3.0 4.0 6 9
r 0.528738 0 4 tcp 1040 ------- 1 3.0 4.0 4 7
+ 0.528738 4 0 ack 40 ------- 1 4.0 3.0 4 11
- 0.528738 4 0 ack 40 ------- 1 4.0 3.0 4 11
r 0.532585 4 0 ack 40 ------- 1 4.0 3.0 3 10
+ 0.532585 0 3 ack 40 ------- 1 4.0 3.0 3 10
- 0.532585 0 3 ack 40 ------- 1 4.0 3.0 3 10
r 0.535138 0 4 tcp 1040 ------- 1 3.0 4.0 5 8
+ 0.535138 4 0 ack 40 ------- 1 4.0 3.0 5 12
- 0.535138 4 0 ack 40 ------- 1 4.0 3.0 5 12
r 0.538985 4 0 ack 40 ------- 1 4.0 3.0 4 11
+ 0.538985 0 3 ack 40 ------- 1 4.0 3.0 4 11
- 0.538985 0 3 ack 40 ------- 1 4.0 3.0 4 11
r 0.541538 0 4 tcp 1040 ------- 1 3.0 4.0 6 9
+ 0.541538 4 0 ack 40 ------- 1 4.0 3.0 6 13
- 0.541538 4 0 ack 40 ------- 1 4.0 3.0 6 13
r 0.542745 0 3 ack 40 ------- 1 4.0 3.0 3 10
+ 0.542745 3 0 tcp 1040 ------- 1 3.0 4.0 7 14
- 0.542745 3 0 tcp 1040 ------- 1 3.0 4.0 7 14
+ 0.542745 3 0 tcp 1040 ------- 1 3.0 4.0 8 15
r 0.545385 4 0 ack 40 ------- 1 4.0 3.0 5 12
+ 0.545385 0 3 ack 40 ------- 1 4.0 3.0 5 12
- 0.545385 0 3 ack 40 ------- 1 4.0 3.0 5 12
- 0.546905 3 0 tcp 1040 ------- 1 3.0 4.0 8 15
r 0.549145 0 3 ack 40 ------- 1 4.0 3.0 4 11
+ 0.549145 3 0 tcp 1040 ------- 1 3.0 4.0 9 16
+ 0.549145 3 0 tcp 1040 ------- 1 3.0 4.0 10 17
- 0.551065 3 0 tcp 1040 ------- 1 3.0 4.0 9 16
r 0.551785 4 0 ack 40 ------- 1 4.0 3.0 6 13
+ 0.551785 0 3 ack 40 ------- 1 4.0 3.0 6 13
- 0.551785 0 3 ack 40 ------- 1 4.0 3.0 6 13
- 0.555225 3 0 tcp 1040 ------- 1 3.0 4.0 10 17
r 0.555545 0 3 ack 40 ------- 1 4.0 3.0 5 12
+ 0.555545 3 0 tcp 1040 ------- 1 3.0 4.0 11 18
+ 0.555545 3 0 tcp 1040 ------- 1 3.0 4.0 12 19
r 0.556905 3 0 tcp 1040 ------- 1 3.0 4.0 7 14
+ 0.556905 0 4 tcp 1040 ------- 1 3.0 4.0 7 14
- 0.556905 0 4 tcp 1040 ------- 1 3.0 4.0 7 14
- 0.559385 3 0 tcp 1040 ------- 1 3.0 4.0 11 18
r 0.561065 3 0 tcp 1040 ------- 1 3.0 4.0 8 15
+ 0.561065 0 4 tcp 1040 ------- 1 3.0 4.0 8 15
r 0.561945 0 3 ack 40 ------- 1 4.0 3.0 6 13
+ 0.561945 3 0 tcp 1040 ------- 1 3.0 4.0 13 20
+ 0.561945 3 0 tcp 1040 ------- 1 3.0 4.0 14 21
- 0.563305 0 4 tcp 1040 ------- 1 3.0 4.0 8 15
- 0.563545 3 0 tcp 1040 ------- 1 3.0 4.0 12 19
r 0.565225 3 0 tcp 1040 ------- 1 3.0 4.0 9 16
+ 0.565225 0 4 tcp 1040 ------- 1 3.0 4.0 9 16
- 0.567705 3 0 tcp 1040 ------- 1 3.0 4.0 13 20
r 0.569385 3 0 tcp 1040 ------- 1 3.0 4.0 10 17
+ 0.569385 0 4 tcp 1040 ------- 1 3.0 4.0 10 17
- 0.569705 0 4 tcp 1040 ------- 1 3.0 4.0 9 16
- 0.571865 3 0 tcp 1040 ------- 1 3.0 4.0 14 21
r 0.573305 0 4 tcp 1040 ------- 1 3.0 4.0 7 14
+ 0.573305 4 0 ack 40 ------- 1 4.0 3.0 7 22
- 0.573305 4 0 ack 40 ------- 1 4.0 3.0 7 22
r 0.573545 3 0 tcp 1040 ------- 1 3.0 4.0 11 18
+ 0.573545 0 4 tcp 1040 ------- 1 3.0 4.0 11 18
- 0.576105 0 4 tcp 1040 ------- 1 3.0 4.0 10 17
r 0.577705 3 0 tcp 1040 ------- 1 3.0 4.0 12 19
+ 0.577705 0 4 tcp 1040 ------- 1 3.0 4.0 12 19
r 0.579705 0 4 tcp 1040 ------- 1 3.0 4.0 8 15
+ 0.579705 4 0 ack 40 ------- 1 4.0 3.0 8 23
- 0.579705 4 0 ack 40 ------- 1 4.0 3.0 8 23
r 0.581865 3 0 tcp 1040 ------- 1 3.0 4.0 13 20
+ 0.581865 0 4 tcp 1040 ------- 1 3.0 4.0 13 20
- 0.582505 0 4 tcp 1040 ------- 1 3.0 4.0 11 18
r 0.583551 4 0 ack 40 ------- 1 4.0 3.0 7 22
+ 0.583551 0 3 ack 40 ------- 1 4.0 3.0 7 22
- 0.583551 0 3 ack 40 ------- 1 4.0 3.0 7 22
r 0.586025 3 0 tcp 1040 ------- 1 3.0 4.0 14 21
+ 0.586025 0 4 tcp 1040 ------- 1 3.0 4.0 14 21
r 0.586105 0 4 tcp 1040 ------- 1 3.0 4.0 9 16
+ 0.586105 4 0 ack 40 ------- 1 4.0 3.0 9 24
- 0.586105 4 0 ack 40 ------- 1 4.0 3.0 9 24
- 0.588905 0 4 tcp 1040 ------- 1 3.0 4.0 12 19
r 0.589951 4 0 ack 40 ------- 1 4.0 3.0 8 23
+ 0.589951 0 3 ack 40 ------- 1 4.0 3.0 8 23
- 0.589951 0 3 ack 40 ------- 1 4.0 3.0 8 23
r 0.592505 0 4 tcp 1040 ------- 1 3.0 4.0 10 17
+ 0.592505 4 0 ack 40 ------- 1 4.0 3.0 10 25
- 0.592505 4 0 ack 40 ------- 1 4.0 3.0 10 25
r 0.593711 0 3 ack 40 ------- 1 4.0 3.0 7 22
+ 0.593711 3 0 tcp 1040 ------- 1 3.0 4.0 15 26
- 0.593711 3 0 tcp 1040 ------- 1 3.0 4.0 15 26
+ 0.593711 3 0 tcp 1040 ------- 1 3.0 4.0 16 27
- 0.595305 0 4 tcp 1040 ------- 1 3.0 4.0 13 20
r 0.596351 4 0 ack 40 ------- 1 4.0 3.0 9 24
+ 0.596351 0 3 ack 40 ------- 1 4.0 3.0 9 24
- 0.596351 0 3 ack 40 ------- 1 4.0 3.0 9 24
- 0.597871 3 0 tcp 1040 ------- 1 3.0 4.0 16 27
r 0.598905 0 4 tcp 1040 ------- 1 3.0 4.0 11 18
+ 0.598905 4 0 ack 40 ------- 1 4.0 3.0 11 28
- 0.598905 4 0 ack 40 ------- 1 4.0 3.0 11 28
r 0.600111 0 3 ack 40 ------- 1 4.0 3.0 8 23
+ 0.600111 3 0 tcp 1040 ------- 1 3.0 4.0 17 29
+ 0.600111 3 0 tcp 1040 ------- 1 3.0 4.0 18 30
- 0.601705 0 4 tcp 1040 ------- 1 3.0 4.0 14 21
- 0.602031 3 0 tcp 1040 ------- 1 3.0 4.0 17 29
r 0.602751 4 0 ack 40 ------- 1 4.0 3.0 10 25
+ 0.602751 0 3 ack 40 ------- 1 4.0 3.0 10 25
- 0.602751 0 3 ack 40 ------- 1 4.0 3.0 10 25
r 0.605305 0 4 tcp 1040 ------- 1 3.0 4.0 12 19
+ 0.605305 4 0 ack 40 ------- 1 4.0 3.0 12 31
- 0.605305 4 0 ack 40 ------- 1 4.0 3.0 12 31
- 0.606191 3 0 tcp 1040 ------- 1 3.0 4.0 18 30
r 0.606511 0 3 ack 40 ------- 1 4.0 3.0 9 24
+ 0.606511 3 0 tcp 1040 ------- 1 3.0 4.0 19 32
+ 0.606511 3 0 tcp 1040 ------- 1 3.0 4.0 20 33
r 0.607871 3 0 tcp 1040 ------- 1 3.0 4.0 15 26
+ 0.607871 0 4 tcp 1040 ------- 1 3.0 4.0 15 26
- 0.608105 0 4 tcp 1040 ------- 1 3.0 4.0 15 26
r 0.609151 4 0 ack 40 ------- 1 4.0 3.0 11 28
+ 0.609151 0 3 ack 40 ------- 1 4.0 3.0 11 28
- 0.609151 0 3 ack 40 ------- 1 4.0 3.0 11 28
- 0.610351 3 0 tcp 1040 ------- 1 3.0 4.0 19 32
r 0.611705 0 4 tcp 1040 ------- 1 3.0 4.0 13 20
+ 0.611705 4 0 ack 40 ------- 1 4.0 3.0 13 34
- 0.611705 4 0 ack 40 ------- 1 4.0 3.0 13 34
r 0.612031 3 0 tcp 1040 ------- 1 3.0 4.0 16 27
+ 0.612031 0 4 tcp 1040 ------- 1 3.0 4.0 16 27
r 0.612911 0 3 ack 40 ------- 1 4.0 3.0 10 25
+ 0.612911 3 0 tcp 1040 ------- 1 3.0 4.0 21 35
+ 0.612911 3 0 tcp 1040 ------- 1 3.0 4.0 22 36
- 0.614505 0 4 tcp 1040 ------- 1 3.0 4.0 16 27
- 0.614511 3 0 tcp 1040 ------- 1 3.0 4.0 20 33
r 0.615551 4 0 ack 40 ------- 1 4.0 3.0 12 31
+ 0.615551 0 3 ack 40 ------- 1 4.0 3.0 12 31
- 0.615551 0 3 ack 40 ------- 1 4.0 3.0 12 31
r 0.616191 3 0 tcp 1040 ------- 1 3.0 4.0 17 29
+ 0.616191 0 4 tcp 1040 ------- 1 3.0 4.0 17 29
r 0.618105 0 4 tcp 1040 ------- 1 3.0 4.0 14 21
+ 0.618105 4 0 ack 40 ------- 1 4.0 3.0 14 37
- 0.618105 4 0 ack 40 ------- 1 4.0 3.0 14 37
- 0.618671 3 0 tcp 1040 ------- 1 3.0 4.0 21 35
r 0.619311 0 3 ack 40 ------- 1 4.0 3.0 11 28
+ 0.619311 3 0 tcp 1040 ------- 1 3.0 4.0 23 38
+ 0.619311 3 0 tcp 1040 ------- 1 3.0 4.0 24 39
r 0.620351 3 0 tcp 1040 ------- 1 3.0 4.0 18 30
+ 0.620351 0 4 tcp 1040 ------- 1 3.0 4.0 18 30
- 0.620905 0 4 tcp 1040 ------- 1 3.0 4.0 17 29
r 0.621951 4 0 ack 40 ------- 1 4.0 3.0 13 34
+ 0.621951 0 3 ack 40 ------- 1 4.0 3.0 13 34
- 0.621951 0 3 ack 40 ------- 1 4.0 3.0 13 34
- 0.622831 3 0 tcp 1040 ------- 1 3.0 4.0 22 36
r 0.624505 0 4 tcp 1040 ------- 1 3.0 4.0 15 26
+ 0.624505 4 0 ack 40 ------- 1 4.0 3.0 15 40
- 0.624505 4 0 ack 40 ------- 1 4.0 3.0 15 40
r 0.624511 3 0 tcp 1040 ------- 1 3.0 4.0 19 32
+ 0.624511 0 4 tcp 1040 ------- 1 3.0 4.0 19 32
r 0.625711 0 3 ack 40 ------- 1 4.0 3.0 12 31
+ 0.625711 3 0 tcp 1040 ------- 1 3.0 4.0 25 41
+ 0.625711 3 0 tcp 1040 ------- 1 3.0 4.0 26 42
- 0.626991 3 0 tcp 1040 ------- 1 3.0 4.0 23 38
- 0.627305 0 4 tcp 1040 ------- 1 3.0 4.0 18 30
r 0.628351 4 0 ack 40 ------- 1 4.0 3.0 14 37
+ 0.628351 0 3 ack 40 ------- 1 4.0 3.0 14 37
- 0.628351 0 3 ack 40 ------- 1 4.0 3.0 14 37
r 0.628671 3 0 tcp 1040 ------- 1 3.0 4.0 20 33
+ 0.628671 0 4 tcp 1040 ------- 1 3.0 4.0 20 33
r 0.630905 0 4 tcp 1040 ------- 1 3.0 4.0 16 27
+ 0.630905 4 0 ack 40 ------- 1 4.0 3.0 16 43
- 0.630905 4 0 ack 40 ------- 1 4.0 3.0 16 43
- 0.631151 3 0 tcp 1040 ------- 1 3.0 4.0 24 39
r 0.632111 0 3 ack 40 ------- 1 4.0 3.0 13 34
+ 0.632111 3 0 tcp 1040 ------- 1 3.0 4.0 27 44
+ 0.632111 3 0 tcp 1040 ------- 1 3.0 4.0 28 45
r 0.632831 3 0 tcp 1040 ------- 1 3.0 4.0 21 35
+ 0.632831 0 4 tcp 1040 ------- 1 3.0 4.0 21 35
- 0.633705 0 4 tcp 1040 ------- 1 3.0 4.0 19 32
r 0.634751 4 0 ack 40 ------- 1 4.0 3.0 15 40
+ 0.634751 0 3 ack 40 ------- 1 4.0 3.0 15 40
- 0.634751 0 3 ack 40 ------- 1 4.0 3.0 15 40
- 0.635311 3 0 tcp 1040 ------- 1 3.0 4.0 25 41
r 0.636991 3 0 tcp 1040 ------- 1 3.0 4.0 22 36
+ 0.636991 0 4 tcp 1040 ------- 1 3.0 4.0 22 36
r 0.637305 0 4 tcp 1040 ------- 1 3.0 4.0 17 29
+ 0.637305 4 0 ack 40 ------- 1 4.0 3.0 17 46
- 0.637305 4 0 ack 40 ------- 1 4.0 3.0 17 46
r 0.638511 0 3 ack 40 ------- 1 4.0 3.0 14 37
+ 0.638511 3 0 tcp 1040 ------- 1 3.0 4.0 29 47
+ 0.638511 3 0 tcp 1040 ------- 1 3.0 4.0 30 48
- 0.639471 3 0 tcp 1040 ------- 1 3.0 4.0 26 42
- 0.640105 0 4 tcp 1040 ------- 1 3.0 4.0 20 33
r 0.641151 4 0 ack 40 ------- 1 4.0 3.0 16 43
+ 0.641151 0 3 ack 40 ------- 1 4.0 3.0 16 43
- 0.641151 0 3 ack 40 ------- 1 4.0 3.0 16 43
r 0.641151 3 0 tcp 1040 ------- 1 3.0 4.0 23 38
+ 0.641151 0 4 tcp 1040 ------- 1 3.0 4.0 23 38
- 0.643631 3 0 tcp 1040 ------- 1 3.0 4.0 27 44
r 0.643705 0 4 tcp 1040 ------- 1 3.0 4.0 18 30
+ 0.643705 4 0 ack 40 ------- 1 4.0 3.0 18 49
- 0.643705 4 0 ack 40 ------- 1 4.0 3.0 18 49
r 0.644911 0 3 ack 40 ------- 1 4.0 3.0 15 40
+ 0.644911 3 0 tcp 1040 ------- 1 3.0 4.0 31 50
+ 0.644911 3 0 tcp 1040 ------- 1 3.0 4.0 32 51
r 0.645311 3 0 tcp 1040 ------- 1 3.0 4.0 24 39
+ 0.645311 0 4 tcp 1040 ------- 1 3.0 4.0 24 39
- 0.646505 0 4 tcp 1040 ------- 1 3.0 4.0 21 35
r 0.647551 4 0 ack 40 ------- 1 4.0 3.0 17 46
+ 0.647551 0 3 ack 40 ------- 1 4.0 3.0 17 46
- 0.647551 0 3 ack 40 ------- 1 4.0 3.0 17 46
- 0.647791 3 0 tcp 1040 ------- 1 3.0 4.0 28 45
r 0.649471 3 0 tcp 1040 ------- 1 3.0 4.0 25 41
+ 0.649471 0 4 tcp 1040 ------- 1 3.0 4.0 25 41
r 0.650105 0 4 tcp 1040 ------- 1 3.0 4.0 19 32
+ 0.650105 4 0 ack 40 ------- 1 4.0 3.0 19 52
- 0.650105 4 0 ack 40 ------- 1 4.0 3.0 19 52
r 0.651311 0 3 ack 40 ------- 1 4.0 3.0 16 43
+ 0.651311 3 0 tcp 1040 ------- 1 3.0 4.0 33 53
+ 0.651311 3 0 tcp 1040 ------- 1 3.0 4.0 34 54
- 0.651951 3 0 tcp 1040 ------- 1 3.0 4.0 29 47
- 0.652905 0 4 tcp 1040 ------- 1 3.0 4.0 22 36
r 0.653631 3 0 tcp 1040 ------- 1 3.0 4.0 26 42
+ 0.653631 0 4 tcp 1040 ------- 1 3.0 4.0 26 42
r 0.653951 4 0 ack 40 ------- 1 4.0 3.0 18 49
+ 0.653951 0 3 ack 40 ------- 1 4.0 3.0 18 49
- 0.653951 0 3 ack 40 ------- 1 4.0 3.0 18 49
- 0.656111 3 0 tcp 1040 ------- 1 3.0 4.0 30 48
r 0.656505 0 4 tcp 1040 ------- 1 3.0 4.0 20 33
+ 0.656505 4 0 ack 40 ------- 1 4.0 3.0 20 55
- 0.656505 4 0 ack 40 ------- 1 4.0 3.0 20 55
r 0.657711 0 3 ack 40 ------- 1 4.0 3.0 17 46
+ 0.657711 3 0 tcp 1040 ------- 1 3.0 4.0 35 56
+ 0.657711 3 0 tcp 1040 ------- 1 3.0 4.0 36 57
r 0.657791 3 0 tcp 1040 ------- 1 3.0 4.0 27 44
+ 0.657791 0 4 tcp 1040 ------- 1 3.0 4.0 27 44
d 0.657791 0 4 tcp 1040 ------- 1 3.0 4.0 27 44
- 0.659305 0 4 tcp 1040 ------- 1 3.0 4.0 23 38
- 0.660271 3 0 tcp 1040 ------- 1 3.0 4.0 31 50
r 0.660351 4 0 ack 40 ------- 1 4.0 3.0 19 52
+ 0.660351 0 3 ack 40 ------- 1 4.0 3.0 19 52
- 0.660351 0 3 ack 40 ------- 1 4.0 3.0 19 52
r 0.661951 3 0 tcp 1040 ------- 1 3.0 4.0 28 45
+ 0.661951 0 4 tcp 1040 ------- 1 3.0 4.0 28 45
r 0.662905 0 4 tcp 1040 ------- 1 3.0 4.0 21 35
+ 0.662905 4 0 ack 40 ------- 1 4.0 3.0 21 58
- 0.662905 4 0 ack 40 ------- 1 4.0 3.0 21 58
r 0.664111 0 3 ack 40 ------- 1 4.0 3.0 18 49
+ 0.664111 3 0 tcp 1040 ------- 1 3.0 4.0 37 59
+ 0.664111 3 0 tcp 1040 ------- 1 3.0 4.0 38 60
- 0.664431 3 0 tcp 1040 ------- 1 3.0 4.0 32 51
- 0.665705 0 4 tcp 1040 ------- 1 3.0 4.0 24 39
r 0.666111 3 0 tcp 1040 ------- 1 3.0 4.0 29 47
+ 0.666111 0 4 tcp 1040 ------- 1 3.0 4.0 29 47
r 0.666751 4 0 ack 40 ------- 1 4.0 3.0 20 55
+ 0.666751 0 3 ack 40 ------- 1 4.0 3.0 20 55
- 0.666751 0 3 ack 40 ------- 1 4.0 3.0 20 55
- 0.668591 3 0 tcp 1040 ------- 1 3.0 4.0 33 53
r 0.669305 0 4 tcp 1040 ------- 1 3.0 4.0 22 36
+ 0.669305 4 0 ack 40 ------- 1 4.0 3.0 22 61
- 0.669305 4 0 ack 40 ------- 1 4.0 3.0 22 61
r 0.670271 3 0 tcp 1040 ------- 1 3.0 4.0 30 48
+ 0.670271 0 4 tcp 1040 ------- 1 3.0 4.0 30 48
d 0.670271 0 4 tcp 1040 ------- 1 3.0 4.0 30 48
r 0.670511 0 3 ack 40 ------- 1 4.0 3.0 19 52
+ 0.670511 3 0 tcp 1040 ------- 1 3.0 4.0 39 62
- 0.672105 0 4 tcp 1040 ------- 1 3.0 4.0 25 41
- 0.672751 3 0 tcp 1040 ------- 1 3.0 4.0 34 54
r 0.673151 4 0 ack 40 ------- 1 4.0 3.0 21 58
+ 0.673151 0 3 ack 40 ------- 1 4.0 3.0 21 58
- 0.673151 0 3 ack 40 ------- 1 4.0 3.0 21 58
r 0.674431 3 0 tcp 1040 ------- 1 3.0 4.0 31 50
+ 0.674431 0 4 tcp 1040 ------- 1 3.0 4.0 31 50
r 0.675705 0 4 tcp 1040 ------- 1 3.0 4.0 23 38
+ 0.675705 4 0 ack 40 ------- 1 4.0 3.0 23 63
- 0.675705 4 0 ack 40 ------- 1 4.0 3.0 23 63
r 0.676911 0 3 ack 40 ------- 1 4.0 3.0 20 55
+ 0.676911 3 0 tcp 1040 ------- 1 3.0 4.0 40 64
- 0.676911 3 0 tcp 1040 ------- 1 3.0 4.0 35 56
- 0.678505 0 4 tcp 1040 ------- 1 3.0 4.0 26 42
r 0.678591 3 0 tcp 1040 ------- 1 3.0 4.0 32 51
+ 0.678591 0 4 tcp 1040 ------- 1 3.0 4.0 32 51
r 0.679551 4 0 ack 40 ------- 1 4.0 3.0 22 61
+ 0.679551 0 3 ack 40 ------- 1 4.0 3.0 22 61
- 0.679551 0 3 ack 40 ------- 1 4.0 3.0 22 61
- 0.681071 3 0 tcp 1040 ------- 1 3.0 4.0 36 57
r 0.682105 0 4 tcp 1040 ------- 1 3.0 4.0 24 39
+ 0.682105 4 0 ack 40 ------- 1 4.0 3.0 24 65
- 0.682105 4 0 ack 40 ------- 1 4.0 3.0 24 65
r 0.682751 3 0 tcp 1040 ------- 1 3.0 4.0 33 53
+ 0.682751 0 4 tcp 1040 ------- 1 3.0 4.0 33 53
d 0.682751 0 4 tcp 1040 ------- 1 3.0 4.0 33 53
r 0.683311 0 3 ack 40 ------- 1 4.0 3.0 21 58
+ 0.683311 3 0 tcp 1040 ------- 1 3.0 4.0 41 66
- 0.684905 0 4 tcp 1040 ------- 1 3.0 4.0 28 45
- 0.685231 3 0 tcp 1040 ------- 1 3.0 4.0 37 59
r 0.685951 4 0 ack 40 ------- 1 4.0 3.0 23 63
+ 0.685951 0 3 ack 40 ------- 1 4.0 3.0 23 63
- 0.685951 0 3 ack 40 ------- 1 4.0 3.0 23 63
r 0.686911 3 0 tcp 1040 ------- 1 3.0 4.0 34 54
+ 0.686911 0 4 tcp 1040 ------- 1 3.0 4.0 34 54
r 0.688505 0 4 tcp 1040 ------- 1 3.0 4.0 25 41
+ 0.688505 4 0 ack 40 ------- 1 4.0 3.0 25 67
- 0.688505 4 0 ack 40 ------- 1 4.0 3.0 25 67
- 0.689391 3 0 tcp 1040 ------- 1 3.0 4.0 38 60
r 0.689711 0 3 ack 40 ------- 1 4.0 3.0 22 61
+ 0.689711 3 0 tcp 1040 ------- 1 3.0 4.0 42 68
r 0.691071 3 0 tcp 1040 ------- 1 3.0 4.0 35 56
+ 0.691071 0 4 tcp 1040 ------- 1 3.0 4.0 35 56
d 0.691071 0 4 tcp 1040 ------- 1 3.0 4.0 35 56
- 0.691305 0 4 tcp 1040 ------- 1 3.0 4.0 29 47
r 0.692351 4 0 ack 40 ------- 1 4.0 3.0 24 65
+ 0.692351 0 3 ack 40 ------- 1 4.0 3.0 24 65
- 0.692351 0 3 ack 40 ------- 1 4.0 3.0 24 65
- 0.693551 3 0 tcp 1040 ------- 1 3.0 4.0 39 62
r 0.694905 0 4 tcp 1040 ------- 1 3.0 4.0 26 42
+ 0.694905 4 0 ack 40 ------- 1 4.0 3.0 26 69
- 0.694905 4 0 ack 40 ------- 1 4.0 3.0 26 69
r 0.695231 3 0 tcp 1040 ------- 1 3.0 4.0 36 57
+ 0.695231 0 4 tcp 1040 ------- 1 3.0 4.0 36 57
r 0.696111 0 3 ack 40 ------- 1 4.0 3.0 23 63
+ 0.696111 3 0 tcp 1040 ------- 1 3.0 4.0 43 70
- 0.697705 0 4 tcp 1040 ------- 1 3.0 4.0 31 50
- 0.697711 3 0 tcp 1040 ------- 1 3.0 4.0 40 64
r 0.698751 4 0 ack 40 ------- 1 4.0 3.0 25 67
+ 0.698751 0 3 ack 40 ------- 1 4.0 3.0 25 67
- 0.698751 0 3 ack 40 ------- 1 4.0 3.0 25 67
r 0.699391 3 0 tcp 1040 ------- 1 3.0 4.0 37 59
+ 0.699391 0 4 tcp 1040 ------- 1 3.0 4.0 37 59
r 0.701305 0 4 tcp 1040 ------- 1 3.0 4.0 28 45
+ 0.701305 4 0 ack 40 ------- 1 4.0 3.0 26 71
- 0.701305 4 0 ack 40 ------- 1 4.0 3.0 26 71
- 0.701871 3 0 tcp 1040 ------- 1 3.0 4.0 41 66
r 0.702511 0 3 ack 40 ------- 1 4.0 3.0 24 65
+ 0.702511 3 0 tcp 1040 ------- 1 3.0 4.0 44 72
r 0.703551 3 0 tcp 1040 ------- 1 3.0 4.0 38 60
+ 0.703551 0 4 tcp 1040 ------- 1 3.0 4.0 38 60
d 0.703551 0 4 tcp 1040 ------- 1 3.0 4.0 38 60
- 0.704105 0 4 tcp 1040 ------- 1 3.0 4.0 32 51
r 0.705151 4 0 ack 40 ------- 1 4.0 3.0 26 69
+ 0.705151 0 3 ack 40 ------- 1 4.0 3.0 26 69
- 0.705151 0 3 ack 40 ------- 1 4.0 3.0 26 69
- 0.706031 3 0 tcp 1040 ------- 1 3.0 4.0 42 68
r 0.707705 0 4 tcp 1040 ------- 1 3.0 4.0 29 47
+ 0.707705 4 0 ack 40 ------- 1 4.0 3.0 26 73
- 0.707705 4 0 ack 40 ------- 1 4.0 3.0 26 73
r 0.707711 3 0 tcp 1040 ------- 1 3.0 4.0 39 62
+ 0.707711 0 4 tcp 1040 ------- 1 3.0 4.0 39 62
r 0.708911 0 3 ack 40 ------- 1 4.0 3.0 25 67
+ 0.708911 3 0 tcp 1040 ------- 1 3.0 4.0 45 74
- 0.710191 3 0 tcp 1040 ------- 1 3.0 4.0 43 70
- 0.710505 0 4 tcp 1040 ------- 1 3.0 4.0 34 54
r 0.711551 4 0 ack 40 ------- 1 4.0 3.0 26 71
+ 0.711551 0 3 ack 40 ------- 1 4.0 3.0 26 71
- 0.711551 0 3 ack 40 ------- 1 4.0 3.0 26 71
r 0.711871 3 0 tcp 1040 ------- 1 3.0 4.0 40 64
+ 0.711871 0 4 tcp 1040 ------- 1 3.0 4.0 40 64
r 0.714105 0 4 tcp 1040 ------- 1 3.0 4.0 31 50
+ 0.714105 4 0 ack 40 ------- 1 4.0 3.0 26 75
- 0.714105 4 0 ack 40 ------- 1 4.0 3.0 26 75
- 0.714351 3 0 tcp 1040 ------- 1 3.0 4.0 44 72
r 0.715311 0 3 ack 40 ------- 1 4.0 3.0 26 69
+ 0.715311 3 0 tcp 1040 ------- 1 3.0 4.0 46 76
r 0.716031 3 0 tcp 1040 ------- 1 3.0 4.0 41 66
+ 0.716031 0 4 tcp 1040 ------- 1 3.0 4.0 41 66
d 0.716031 0 4 tcp 1040 ------- 1 3.0 4.0 41 66
- 0.716905 0 4 tcp 1040 ------- 1 3.0 4.0 36 57
r 0.717951 4 0 ack 40 ------- 1 4.0 3.0 26 73
+ 0.717951 0 3 ack 40 ------- 1 4.0 3.0 26 73
- 0.717951 0 3 ack 40 ------- 1 4.0 3.0 26 73
- 0.718511 3 0 tcp 1040 ------- 1 3.0 4.0 45 74
r 0.720191 3 0 tcp 1040 ------- 1 3.0 4.0 42 68
+ 0.720191 0 4 tcp 1040 ------- 1 3.0 4.0 42 68
r 0.720505 0 4 tcp 1040 ------- 1 3.0 4.0 32 51
+ 0.720505 4 0 ack 40 ------- 1 4.0 3.0 26 77
- 0.720505 4 0 ack 40 ------- 1 4.0 3.0 26 77
r 0.721711 0 3 ack 40 ------- 1 4.0 3.0 26 71
- 0.722671 3 0 tcp 1040 ------- 1 3.0 4.0 46 76
- 0.723305 0 4 tcp 1040 ------- 1 3.0 4.0 37 59
r 0.724351 4 0 ack 40 ------- 1 4.0 3.0 26 75
+ 0.724351 0 3 ack 40 ------- 1 4.0 3.0 26 75
- 0.724351 0 3 ack 40 ------- 1 4.0 3.0 26 75
r 0.724351 3 0 tcp 1040 ------- 1 3.0 4.0 43 70
+ 0.724351 0 4 tcp 1040 ------- 1 3.0 4.0 43 70
r 0.726905 0 4 tcp 1040 ------- 1 3.0 4.0 34 54
+ 0.726905 4 0 ack 40 ------- 1 4.0 3.0 26 78
- 0.726905 4 0 ack 40 ------- 1 4.0 3.0 26 78
r 0.728111 0 3 ack 40 ------- 1 4.0 3.0 26 73
r 0.728511 3 0 tcp 1040 ------- 1 3.0 4.0 44 72
+ 0.728511 0 4 tcp 1040 ------- 1 3.0 4.0 44 72
d 0.728511 0 4 tcp 1040 ------- 1 3.0 4.0 44 72
- 0.729705 0 4 tcp 1040 ------- 1 3.0 4.0 39 62
r 0.730751 4 0 ack 40 ------- 1 4.0 3.0 26 77
+ 0.730751 0 3 ack 40 ------- 1 4.0 3.0 26 77
- 0.730751 0 3 ack 40 ------- 1 4.0 3.0 26 77
r 0.732671 3 0 tcp 1040 ------- 1 3.0 4.0 45 74
+ 0.732671 0 4 tcp 1040 ------- 1 3.0 4.0 45 74
r 0.733305 0 4 tcp 1040 ------- 1 3.0 4.0 36 57
+ 0.733305 4 0 ack 40 ------- 1 4.0 3.0 26 79
- 0.733305 4 0 ack 40 ------- 1 4.0 3.0 26 79
r 0.734511 0 3 ack 40 ------- 1 4.0 3.0 26 75
+ 0.734511 3 0 tcp 1040 ---A--- 1 3.0 4.0 27 80
- 0.734511 3 0 tcp 1040 ---A--- 1 3.0 4.0 27 80
- 0.736105 0 4 tcp 1040 ------- 1 3.0 4.0 40 64
r 0.736831 3 0 tcp 1040 ------- 1 3.0 4.0 46 76
+ 0.736831 0 4 tcp 1040 ------- 1 3.0 4.0 46 76
r 0.737151 4 0 ack 40 ------- 1 4.0 3.0 26 78
+ 0.737151 0 3 ack 40 ------- 1 4.0 3.0 26 78
- 0.737151 0 3 ack 40 ------- 1 4.0 3.0 26 78
r 0.739705 0 4 tcp 1040 ------- 1 3.0 4.0 37 59
+ 0.739705 4 0 ack 40 ------- 1 4.0 3.0 26 81
- 0.739705 4 0 ack 40 ------- 1 4.0 3.0 26 81
r 0.740911 0 3 ack 40 ------- 1 4.0 3.0 26 77
- 0.742505 0 4 tcp 1040 ------- 1 3.0 4.0 42 68
r 0.743551 4 0 ack 40 ------- 1 4.0 3.0 26 79
+ 0.743551 0 3 ack 40 ------- 1 4.0 3.0 26 79
- 0.743551 0 3 ack 40 ------- 1 4.0 3.0 26 79
r 0.746105 0 4 tcp 1040 ------- 1 3.0 4.0 39 62
+ 0.746105 4 0 ack 40 ------- 1 4.0 3.0 26 82
- 0.746105 4 0 ack 40 ------- 1 4.0 3.0 26 82
r 0.747311 0 3 ack 40 ------- 1 4.0 3.0 26 78
r 0.748671 3 0 tcp 1040 ---A--- 1 3.0 4.0 27 80
+ 0.748671 0 4 tcp 1040 ---A--- 1 3.0 4.0 27 80
- 0.748905 0 4 tcp 1040 ------- 1 3.0 4.0 43 70
r 0.749951 4 0 ack 40 ------- 1 4.0 3.0 26 81
+ 0.749951 0 3 ack 40 ------- 1 4.0 3.0 26 81
- 0.749951 0 3 ack 40 ------- 1 4.0 3.0 26 81
r 0.752505 0 4 tcp 1040 ------- 1 3.0 4.0 40 64
+ 0.752505 4 0 ack 40 ------- 1 4.0 3.0 26 83
- 0.752505 4 0 ack 40 ------- 1 4.0 3.0 26 83
r 0.753711 0 3 ack 40 ------- 1 4.0 3.0 26 79
- 0.755305 0 4 tcp 1040 ------- 1 3.0 4.0 45 74
r 0.756351 4 0 ack 40 ------- 1 4.0 3.0 26 82
+ 0.756351 0 3 ack 40 ------- 1 4.0 3.0 26 82
- 0.756351 0 3 ack 40 ------- 1 4.0 3.0 26 82
r 0.758905 0 4 tcp 1040 ------- 1 3.0 4.0 42 68
+ 0.758905 4 0 ack 40 ------- 1 4.0 3.0 26 84
- 0.758905 4 0 ack 40 ------- 1 4.0 3.0 26 84
r 0.760111 0 3 ack 40 ------- 1 4.0 3.0 26 81
- 0.761705 0 4 tcp 1040 ------- 1 3.0 4.0 46 76
r 0.762751 4 0 ack 40 ------- 1 4.0 3.0 26 83
+ 0.762751 0 3 ack 40 ------- 1 4.0 3.0 26 83
- 0.762751 0 3 ack 40 ------- 1 4.0 3.0 26 83
r 0.765305 0 4 tcp 1040 ------- 1 3.0 4.0 43 70
+ 0.765305 4 0 ack 40 ------- 1 4.0 3.0 26 85
- 0.765305 4 0 ack 40 ------- 1 4.0 3.0 26 85
r 0.766511 0 3 ack 40 ------- 1 4.0 3.0 26 82
- 0.768105 0 4 tcp 1040 ---A--- 1 3.0 4.0 27 80
r 0.769151 4 0 ack 40 ------- 1 4.0 3.0 26 84
+ 0.769151 0 3 ack 40 ------- 1 4.0 3.0 26 84
- 0.769151 0 3 ack 40 ------- 1 4.0 3.0 26 84
r 0.771705 0 4 tcp 1040 ------- 1 3.0 4.0 45 74
+ 0.771705 4 0 ack 40 ------- 1 4.0 3.0 26 86
- 0.771705 4 0 ack 40 ------- 1 4.0 3.0 26 86
r 0.772911 0 3 ack 40 ------- 1 4.0 3.0 26 83
r 0.775551 4 0 ack 40 ------- 1 4.0 3.0 26 85
+ 0.775551 0 3 ack 40 ------- 1 4.0 3.0 26 85
- 0.775551 0 3 ack 40 ------- 1 4.0 3.0 26 85
r 0.778105 0 4 tcp 1040 ------- 1 3.0 4.0 46 76
+ 0.778105 4 0 ack 40 ------- 1 4.0 3.0 26 87
- 0.778105 4 0 ack 40 ------- 1 4.0 3.0 26 87
r 0.779311 0 3 ack 40 ------- 1 4.0 3.0 26 84
r 0.781951 4 0 ack 40 ------- 1 4.0 3.0 26 86
+ 0.781951 0 3 ack 40 ------- 1 4.0 3.0 26 86
- 0.781951 0 3 ack 40 ------- 1 4.0 3.0 26 86
r 0.784505 0 4 tcp 1040 ---A--- 1 3.0 4.0 27 80
+ 0.784505 4 0 ack 40 ------- 1 4.0 3.0 29 88
- 0.784505 4 0 ack 40 ------- 1 4.0 3.0 29 88
r 0.785711 0 3 ack 40 ------- 1 4.0 3.0 26 85
r 0.788351 4 0 ack 40 ------- 1 4.0 3.0 26 87
+ 0.788351 0 3 ack 40 ------- 1 4.0 3.0 26 87
- 0.788351 0 3 ack 40 ------- 1 4.0 3.0 26 87
r 0.792111 0 3 ack 40 ------- 1 4.0 3.0 26 86
r 0.794751 4 0 ack 40 ------- 1 4.0 3.0 29 88
+ 0.794751 0 3 ack 40 ------- 1 4.0 3.0 29 88
- 0.794751 0 3 ack 40 ------- 1 4.0 3.0 29 88
r 0.798511 0 3 ack 40 ------- 1 4.0 3.0 26 87
r 0.804911 0 3 ack 40 ------- 1 4.0 3.0 29 88
+ 0.804911 3 0 tcp 1040 ------- 1 3.0 4.0 30 89
- 0.804911 3 0 tcp 1040 ------- 1 3.0 4.0 30 89
+ 0.804911 3 0 tcp 1040 ------- 1 3.0 4.0 31 90
- 0.809071 3 0 tcp 1040 ------- 1 3.0 4.0 31 90
r 0.819071 3 0 tcp 1040 ------- 1 3.0 4.0 30 89
+ 0.819071 0 4 tcp 1040 ------- 1 3.0 4.0 30 89
- 0.819071 0 4 tcp 1040 ------- 1 3.0 4.0 30 89
r 0.823231 3 0 tcp 1040 ------- 1 3.0 4.0 31 90
+ 0.823231 0 4 tcp 1040 ------- 1 3.0 4.0 31 90
- 0.825471 0 4 tcp 1040 ------- 1 3.0 4.0 31 90
r 0.835471 0 4 tcp 1040 ------- 1 3.0 4.0 30 89
+ 0.835471 4 0 ack 40 ------- 1 4.0 3.0 32 91
- 0.835471 4 0 ack 40 ------- 1 4.0 3.0 32 91
r 0.841871 0 4 tcp 1040 ------- 1 3.0 4.0 31 90
+ 0.841871 4 0 ack 40 ------- 1 4.0 3.0 32 92
- 0.841871 4 0 ack 40 ------- 1 4.0 3.0 32 92
r 0.845717 4 0 ack 40 ------- 1 4.0 3.0 32 91
+ 0.845717 0 3 ack 40 ------- 1 4.0 3.0 32 91
- 0.845717 0 3 ack 40 ------- 1 4.0 3.0 32 91
r 0.852117 4 0 ack 40 ------- 1 4.0 3.0 32 92
+ 0.852117 0 3 ack 40 ------- 1 4.0 3.0 32 92
- 0.852117 0 3 ack 40 ------- 1 4.0 3.0 32 92
r 0.855877 0 3 ack 40 ------- 1 4.0 3.0 32 91
+ 0.855877 3 0 tcp 1040 ------- 1 3.0 4.0 33 93
- 0.855877 3 0 tcp 1040 ------- 1 3.0 4.0 33 93
+ 0.855877 3 0 tcp 1040 ------- 1 3.0 4.0 34 94
+ 0.855877 3 0 tcp 1040 ------- 1 3.0 4.0 35 95
- 0.860037 3 0 tcp 1040 ------- 1 3.0 4.0 34 94
r 0.862277 0 3 ack 40 ------- 1 4.0 3.0 32 92
+ 0.862277 3 0 tcp 1040 ------- 1 3.0 4.0 36 96
- 0.864197 3 0 tcp 1040 ------- 1 3.0 4.0 35 95
- 0.868357 3 0 tcp 1040 ------- 1 3.0 4.0 36 96
r 0.870037 3 0 tcp 1040 ------- 1 3.0 4.0 33 93
+ 0.870037 0 4 tcp 1040 ------- 1 3.0 4.0 33 93
- 0.870037 0 4 tcp 1040 ------- 1 3.0 4.0 33 93
r 0.874197 3 0 tcp 1040 ------- 1 3.0 4.0 34 94
+ 0.874197 0 4 tcp 1040 ------- 1 3.0 4.0 34 94
- 0.876437 0 4 tcp 1040 ------- 1 3.0 4.0 34 94
r 0.878357 3 0 tcp 1040 ------- 1 3.0 4.0 35 95
+ 0.878357 0 4 tcp 1040 ------- 1 3.0 4.0 35 95
r 0.882517 3 0 tcp 1040 ------- 1 3.0 4.0 36 96
+ 0.882517 0 4 tcp 1040 ------- 1 3.0 4.0 36 96
- 0.882837 0 4 tcp 1040 ------- 1 3.0 4.0 35 95
r 0.886437 0 4 tcp 1040 ------- 1 3.0 4.0 33 93
+ 0.886437 4 0 ack 40 ------- 1 4.0 3.0 34 97
- 0.886437 4 0 ack 40 ------- 1 4.0 3.0 34 97
- 0.889237 0 4 tcp 1040 ------- 1 3.0 4.0 36 96
r 0.892837 0 4 tcp 1040 ------- 1 3.0 4.0 34 94
+ 0.892837 4 0 ack 40 ------- 1 4.0 3.0 34 98
- 0.892837 4 0 ack 40 ------- 1 4.0 3.0 34 98
r 0.896683 4 0 ack 40 ------- 1 4.0 3.0 34 97
+ 0.896683 0 3 ack 40 ------- 1 4.0 3.0 34 97
- 0.896683 0 3 ack 40 ------- 1 4.0 3.0 34 97
r 0.899237 0 4 tcp 1040 ------- 1 3.0 4.0 35 95
+ 0.899237 4 0 ack 40 ------- 1 4.0 3.0 37 99
- 0.899237 4 0 ack 40 ------- 1 4.0 3.0 37 99
r 0.903083 4 0 ack 40 ------- 1 4.0 3.0 34 98
+ 0.903083 0 3 ack 40 ------- 1 4.0 3.0 34 98
- 0.903083 0 3 ack 40 ------- 1 4.0 3.0 34 98
r 0.905637 0 4 tcp 1040 ------- 1 3.0 4.0 36 96
+ 0.905637 4 0 ack 40 ------- 1 4.0 3.0 37 100
- 0.905637 4 0 ack 40 ------- 1 4.0 3.0 37 100
r 0.906843 0 3 ack 40 ------- 1 4.0 3.0 34 97
+ 0.906843 3 0 tcp 1040 ------- 1 3.0 4.0 37 101
- 0.906843 3 0 tcp 1040 ------- 1 3.0 4.0 37 101
+ 0.906843 3 0 tcp 1040 ------- 1 3.0 4.0 38 102
r 0.909483 4 0 ack 40 ------- 1 4.0 3.0 37 99
+ 0.909483 0 3 ack 40 ------- 1 4.0 3.0 37 99
- 0.909483 0 3 ack 40 ------- 1 4.0 3.0 37 99
- 0.911003 3 0 tcp 1040 ------- 1 3.0 4.0 38 102
r 0.913243 0 3 ack 40 ------- 1 4.0 3.0 34 98
+ 0.913243 3 0 tcp 1040 ------- 1 3.0 4.0 39 103
- 0.915163 3 0 tcp 1040 ------- 1 3.0 4.0 39 103
r 0.915883 4 0 ack 40 ------- 1 4.0 3.0 37 100
+ 0.915883 0 3 ack 40 ------- 1 4.0 3.0 37 100
- 0.915883 0 3 ack 40 ------- 1 4.0 3.0 37 100
r 0.919643 0 3 ack 40 ------- 1 4.0 3.0 37 99
+ 0.919643 3 0 tcp 1040 ------- 1 3.0 4.0 40 104
- 0.919643 3 0 tcp 1040 ------- 1 3.0 4.0 40 104
+ 0.919643 3 0 tcp 1040 ------- 1 3.0 4.0 41 105
+ 0.919643 3 0 tcp 1040 ------- 1 3.0 4.0 42 106
r 0.921003 3 0 tcp 1040 ------- 1 3.0 4.0 37 101
+ 0.921003 0 4 tcp 1040 ------- 1 3.0 4.0 37 101
- 0.921003 0 4 tcp 1040 ------- 1 3.0 4.0 37 101
- 0.923803 3 0 tcp 1040 ------- 1 3.0 4.0 41 105
r 0.925163 3 0 tcp 1040 ------- 1 3.0 4.0 38 102
+ 0.925163 0 4 tcp 1040 ------- 1 3.0 4.0 38 102
r 0.926043 0 3 ack 40 ------- 1 4.0 3.0 37 100
+ 0.926043 3 0 tcp 1040 ------- 1 3.0 4.0 43 107
- 0.927403 0 4 tcp 1040 ------- 1 3.0 4.0 38 102
- 0.927963 3 0 tcp 1040 ------- 1 3.0 4.0 42 106
r 0.929323 3 0 tcp 1040 ------- 1 3.0 4.0 39 103
+ 0.929323 0 4 tcp 1040 ------- 1 3.0 4.0 39 103
- 0.932123 3 0 tcp 1040 ------- 1 3.0 4.0 43 107
r 0.933803 3 0 tcp 1040 ------- 1 3.0 4.0 40 104
+ 0.933803 0 4 tcp 1040 ------- 1 3.0 4.0 40 104
- 0.933803 0 4 tcp 1040 ------- 1 3.0 4.0 39 103
r 0.937403 0 4 tcp 1040 ------- 1 3.0 4.0 37 101
+ 0.937403 4 0 ack 40 ------- 1 4.0 3.0 37 108
- 0.937403 4 0 ack 40 ------- 1 4.0 3.0 37 108
r 0.937963 3 0 tcp 1040 ------- 1 3.0 4.0 41 105
+ 0.937963 0 4 tcp 1040 ------- 1 3.0 4.0 41 105
- 0.940203 0 4 tcp 1040 ------- 1 3.0 4.0 40 104
r 0.942123 3 0 tcp 1040 ------- 1 3.0 4.0 42 106
+ 0.942123 0 4 tcp 1040 ------- 1 3.0 4.0 42 106
r 0.943803 0 4 tcp 1040 ------- 1 3.0 4.0 38 102
+ 0.943803 4 0 ack 40 ------- 1 4.0 3.0 40 109
- 0.943803 4 0 ack 40 ------- 1 4.0 3.0 40 109
r 0.946283 3 0 tcp 1040 ------- 1 3.0 4.0 43 107
+ 0.946283 0 4 tcp 1040 ------- 1 3.0 4.0 43 107
- 0.946603 0 4 tcp 1040 ------- 1 3.0 4.0 41 105
r 0.947649 4 0 ack 40 ------- 1 4.0 3.0 37 108
+ 0.947649 0 3 ack 40 ------- 1 4.0 3.0 37 108